
  ___ ___ ___ _ _ _  
 |   |   |_  | | | | 
 | | | | | . | | | | 
 |__ |  _|___|_____|  24.6.0
 |___|_|             

User:   yiyangfu@nid006342
Date:   Thu Aug  8 08:41:24 2024
Arch:   x86_64
Pid:    1770970
CWD:    /pscratch/sd/y/yiyangfu/01_test/02.preprocissing/01_pre_random
Python: 3.12.3

  ___ ___ ___ _ _ _  
 |   |   |_  | | | | 
 | | | | | . | | | | 
 |__ |  _|___|_____|  24.6.0
 |___|_|             

User:   yiyangfu@nid006342
Date:   Thu Aug  8 08:41:24 2024
Arch:   x86_64
Pid:    1770993
CWD:    /pscratch/sd/y/yiyangfu/01_test/02.preprocissing/01_pre_random
Python: 3.12.3

  ___ ___ ___ _ _ _  
 |   |   |_  | | | | 
 | | | | | . | | | | 
 |__ |  _|___|_____|  24.6.0
 |___|_|             

User:   yiyangfu@nid006342
Date:   Thu Aug  8 08:41:24 2024
Arch:   x86_64
Pid:    1770997
CWD:    /pscratch/sd/y/yiyangfu/01_test/02.preprocissing/01_pre_random
Python: 3.12.3

  ___ ___ ___ _ _ _  
 |   |   |_  | | | | 
 | | | | | . | | | | 
 |__ |  _|___|_____|  24.6.0
 |___|_|             

User:   yiyangfu@nid006342
Date:   Thu Aug  8 08:41:24 2024
Arch:   x86_64
Pid:    1770989
CWD:    /pscratch/sd/y/yiyangfu/01_test/02.preprocissing/01_pre_random
Python: 3.12.3

  ___ ___ ___ _ _ _  
 |   |   |_  | | | | 
 | | | | | . | | | | 
 |__ |  _|___|_____|  24.6.0
 |___|_|             

User:   yiyangfu@nid006342
Date:   Thu Aug  8 08:41:24 2024
Arch:   x86_64
Pid:    1770994
CWD:    /pscratch/sd/y/yiyangfu/01_test/02.preprocissing/01_pre_random
Python: 3.12.3

  ___ ___ ___ _ _ _  
 |   |   |_  | | | | 
 | | | | | . | | | | 
 |__ |  _|___|_____|  24.6.0
 |___|_|             

User:   yiyangfu@nid006342
Date:   Thu Aug  8 08:41:24 2024
Arch:   x86_64
Pid:    1770996
CWD:    /pscratch/sd/y/yiyangfu/01_test/02.preprocissing/01_pre_random
Python: 3.12.3

  ___ ___ ___ _ _ _  
 |   |   |_  | | | | 
 | | | | | . | | | | 
 |__ |  _|___|_____|  24.6.0
 |___|_|             

User:   yiyangfu@nid006342
Date:   Thu Aug  8 08:41:24 2024
Arch:   x86_64
Pid:    1770992
CWD:    /pscratch/sd/y/yiyangfu/01_test/02.preprocissing/01_pre_random
Python: 3.12.3

  ___ ___ ___ _ _ _  
 |   |   |_  | | | | 
 | | | | | . | | | | 
 |__ |  _|___|_____|  24.6.0
 |___|_|             

User:   yiyangfu@nid006342
Date:   Thu Aug  8 08:41:24 2024
Arch:   x86_64
Pid:    1770998
CWD:    /pscratch/sd/y/yiyangfu/01_test/02.preprocissing/01_pre_random
Python: 3.12.3

  ___ ___ ___ _ _ _  
 |   |   |_  | | | | 
 | | | | | . | | | | 
 |__ |  _|___|_____|  24.6.0
 |___|_|             

User:   yiyangfu@nid006342
Date:   Thu Aug  8 08:41:24 2024
Arch:   x86_64
Pid:    1770988
CWD:    /pscratch/sd/y/yiyangfu/01_test/02.preprocissing/01_pre_random
Python: 3.12.3

  ___ ___ ___ _ _ _  
 |   |   |_  | | | | 
 | | | | | . | | | | 
 |__ |  _|___|_____|  24.6.0
 |___|_|             

User:   yiyangfu@nid006342
Date:   Thu Aug  8 08:41:24 2024
Arch:   x86_64
Pid:    1770995
CWD:    /pscratch/sd/y/yiyangfu/01_test/02.preprocissing/01_pre_random
Python: 3.12.3

  ___ ___ ___ _ _ _  
 |   |   |_  | | | | 
 | | | | | . | | | | 
 |__ |  _|___|_____|  24.6.0
 |___|_|             

User:   yiyangfu@nid006342
Date:   Thu Aug  8 08:41:24 2024
Arch:   x86_64
Pid:    1770974
CWD:    /pscratch/sd/y/yiyangfu/01_test/02.preprocissing/01_pre_random
Python: 3.12.3

  ___ ___ ___ _ _ _  
 |   |   |_  | | | | 
 | | | | | . | | | | 
 |__ |  _|___|_____|  24.6.0
 |___|_|             

User:   yiyangfu@nid006342
Date:   Thu Aug  8 08:41:24 2024
Arch:   x86_64
Pid:    1770984
CWD:    /pscratch/sd/y/yiyangfu/01_test/02.preprocissing/01_pre_random
Python: 3.12.3

  ___ ___ ___ _ _ _  
 |   |   |_  | | | | 
 | | | | | . | | | | 
 |__ |  _|___|_____|  24.6.0
 |___|_|             

User:   yiyangfu@nid006342
Date:   Thu Aug  8 08:41:24 2024
Arch:   x86_64
Pid:    1770986
CWD:    /pscratch/sd/y/yiyangfu/01_test/02.preprocissing/01_pre_random
Python: 3.12.3

  ___ ___ ___ _ _ _  
 |   |   |_  | | | | 
 | | | | | . | | | | 
 |__ |  _|___|_____|  24.6.0
 |___|_|             

User:   yiyangfu@nid006342
Date:   Thu Aug  8 08:41:24 2024
Arch:   x86_64
Pid:    1770967
CWD:    /pscratch/sd/y/yiyangfu/01_test/02.preprocissing/01_pre_random
Python: 3.12.3

  ___ ___ ___ _ _ _  
 |   |   |_  | | | | 
 | | | | | . | | | | 
 |__ |  _|___|_____|  24.6.0
 |___|_|             

User:   yiyangfu@nid006342
Date:   Thu Aug  8 08:41:24 2024
Arch:   x86_64
Pid:    1770980
CWD:    /pscratch/sd/y/yiyangfu/01_test/02.preprocissing/01_pre_random
Python: 3.12.3

  ___ ___ ___ _ _ _  
 |   |   |_  | | | | 
 | | | | | . | | | | 
 |__ |  _|___|_____|  24.6.0
 |___|_|             

User:   yiyangfu@nid006342
Date:   Thu Aug  8 08:41:24 2024
Arch:   x86_64
Pid:    1770990
CWD:    /pscratch/sd/y/yiyangfu/01_test/02.preprocissing/01_pre_random
Python: 3.12.3

  ___ ___ ___ _ _ _  
 |   |   |_  | | | | 
 | | | | | . | | | | 
 |__ |  _|___|_____|  24.6.0
 |___|_|             

User:   yiyangfu@nid006342
Date:   Thu Aug  8 08:41:24 2024
Arch:   x86_64
Pid:    1770954
CWD:    /pscratch/sd/y/yiyangfu/01_test/02.preprocissing/01_pre_random
Python: 3.12.3

  ___ ___ ___ _ _ _  
 |   |   |_  | | | | 
 | | | | | . | | | | 
 |__ |  _|___|_____|  24.6.0
 |___|_|             

User:   yiyangfu@nid006342
Date:   Thu Aug  8 08:41:24 2024
Arch:   x86_64
Pid:    1770987
CWD:    /pscratch/sd/y/yiyangfu/01_test/02.preprocissing/01_pre_random
Python: 3.12.3

  ___ ___ ___ _ _ _  
 |   |   |_  | | | | 
 | | | | | . | | | | 
 |__ |  _|___|_____|  24.6.0
 |___|_|             

User:   yiyangfu@nid006342
Date:   Thu Aug  8 08:41:24 2024
Arch:   x86_64
Pid:    1770985
CWD:    /pscratch/sd/y/yiyangfu/01_test/02.preprocissing/01_pre_random
Python: 3.12.3

  ___ ___ ___ _ _ _  
 |   |   |_  | | | | 
 | | | | | . | | | | 
 |__ |  _|___|_____|  24.6.0
 |___|_|             

User:   yiyangfu@nid006342
Date:   Thu Aug  8 08:41:24 2024
Arch:   x86_64
Pid:    1770982
CWD:    /pscratch/sd/y/yiyangfu/01_test/02.preprocissing/01_pre_random
Python: 3.12.3

  ___ ___ ___ _ _ _  
 |   |   |_  | | | | 
 | | | | | . | | | | 
 |__ |  _|___|_____|  24.6.0
 |___|_|             

User:   yiyangfu@nid006342
Date:   Thu Aug  8 08:41:24 2024
Arch:   x86_64
Pid:    1770976
CWD:    /pscratch/sd/y/yiyangfu/01_test/02.preprocissing/01_pre_random
Python: 3.12.3

  ___ ___ ___ _ _ _  
 |   |   |_  | | | | 
 | | | | | . | | | | 
 |__ |  _|___|_____|  24.6.0
 |___|_|             

User:   yiyangfu@nid006342
Date:   Thu Aug  8 08:41:24 2024
Arch:   x86_64
Pid:    1770973
CWD:    /pscratch/sd/y/yiyangfu/01_test/02.preprocissing/01_pre_random
Python: 3.12.3

  ___ ___ ___ _ _ _  
 |   |   |_  | | | | 
 | | | | | . | | | | 
 |__ |  _|___|_____|  24.6.0
 |___|_|             

User:   yiyangfu@nid006342
Date:   Thu Aug  8 08:41:24 2024
Arch:   x86_64
Pid:    1770961
CWD:    /pscratch/sd/y/yiyangfu/01_test/02.preprocissing/01_pre_random

  ___ ___ ___ _ _ _  
 |   |   |_  | | | | 
 | | | | | . | | | | 
 |__ |  _|___|_____|  24.6.0
 |___|_|             

User:   yiyangfu@nid006342
Date:   Thu Aug  8 08:41:24 2024
Arch:   x86_64
Pid:    1770959
CWD:    /pscratch/sd/y/yiyangfu/01_test/02.preprocissing/01_pre_random
Python: 3.12.3

  ___ ___ ___ _ _ _  
 |   |   |_  | | | | 
 | | | | | . | | | | 
 |__ |  _|___|_____|  24.6.0
 |___|_|             

User:   yiyangfu@nid006342
Date:   Thu Aug  8 08:41:24 2024
Arch:   x86_64
Pid:    1770977
CWD:    /pscratch/sd/y/yiyangfu/01_test/02.preprocissing/01_pre_random
Python: 3.12.3

  ___ ___ ___ _ _ _  
 |   |   |_  | | | | 
 | | | | | . | | | | 
 |__ |  _|___|_____|  24.6.0
 |___|_|             

User:   yiyangfu@nid006342
Date:   Thu Aug  8 08:41:24 2024
Arch:   x86_64
Pid:    1770978
CWD:    /pscratch/sd/y/yiyangfu/01_test/02.preprocissing/01_pre_random
Python: 3.12.3
Python: 3.12.3

  ___ ___ ___ _ _ _  
 |   |   |_  | | | | 
 | | | | | . | | | | 
 |__ |  _|___|_____|  24.6.0
 |___|_|             


  ___ ___ ___ _ _ _  
 |   |   |_  | | | | 
 | | | | | . | | | | 
 |__ |  _|___|_____|  24.6.0
 |___|_|             


  ___ ___ ___ _ _ _  
 |   |   |_  | | | | 
 | | | | | . | | | | 
 |__ |  _|___|_____|  24.6.0
 |___|_|             

User:   yiyangfu@nid006342
Date:   Thu Aug  8 08:41:24 2024
Arch:   x86_64

  ___ ___ ___ _ _ _  
 |   |   |_  | | | | 
 | | | | | . | | | | 
 |__ |  _|___|_____|  24.6.0
 |___|_|             

User:   yiyangfu@nid006342

  ___ ___ ___ _ _ _  
 |   |   |_  | | | | 
 | | | | | . | | | | 
 |__ |  _|___|_____|  24.6.0
 |___|_|             

User:   yiyangfu@nid006342
Date:   Thu Aug  8 08:41:24 2024
Arch:   x86_64
Pid:    1770991
CWD:    /pscratch/sd/y/yiyangfu/01_test/02.preprocissing/01_pre_random
Python: 3.12.3

  ___ ___ ___ _ _ _  
 |   |   |_  | | | | 
 | | | | | . | | | | 
 |__ |  _|___|_____|  24.6.0
 |___|_|             

User:   yiyangfu@nid006342
Date:   Thu Aug  8 08:41:24 2024
Arch:   x86_64
Pid:    1770969
User:   yiyangfu@nid006342
Date:   Thu Aug  8 08:41:24 2024
Arch:   x86_64
Pid:    1770943
CWD:    /pscratch/sd/y/yiyangfu/01_test/02.preprocissing/01_pre_random
Python: 3.12.3
User:   yiyangfu@nid006342
Date:   Thu Aug  8 08:41:24 2024
Arch:   x86_64
Pid:    1770949
CWD:    /pscratch/sd/y/yiyangfu/01_test/02.preprocissing/01_pre_random
Python: 3.12.3
Pid:    1770975
CWD:    /pscratch/sd/y/yiyangfu/01_test/02.preprocissing/01_pre_random
Python: 3.12.3
Date:   Thu Aug  8 08:41:24 2024
Arch:   x86_64
Pid:    1770972
CWD:    /pscratch/sd/y/yiyangfu/01_test/02.preprocissing/01_pre_random
Python: 3.12.3
CWD:    /pscratch/sd/y/yiyangfu/01_test/02.preprocissing/01_pre_random
Python: 3.12.3

  ___ ___ ___ _ _ _  
 |   |   |_  | | | | 
 | | | | | . | | | | 
 |__ |  _|___|_____|  24.6.0
 |___|_|             


  ___ ___ ___ _ _ _  
 |   |   |_  | | | | 
 | | | | | . | | | | 
 |__ |  _|___|_____|  24.6.0
 |___|_|             

User:   yiyangfu@nid006342

  ___ ___ ___ _ _ _  
 |   |   |_  | | | | 
 | | | | | . | | | | 
 |__ |  _|___|_____|  24.6.0
 |___|_|             

User:   yiyangfu@nid006342
Date:   Thu Aug  8 08:41:24 2024
Arch:   x86_64

  ___ ___ ___ _ _ _  
 |   |   |_  | | | | 
 | | | | | . | | | | 
 |__ |  _|___|_____|  24.6.0
 |___|_|             

User:   yiyangfu@nid006342
Date:   Thu Aug  8 08:41:24 2024
Arch:   x86_64
Pid:    1770947
CWD:    /pscratch/sd/y/yiyangfu/01_test/02.preprocissing/01_pre_random
Python: 3.12.3

  ___ ___ ___ _ _ _  
 |   |   |_  | | | | 
 | | | | | . | | | | 
 |__ |  _|___|_____|  24.6.0
 |___|_|             

User:   yiyangfu@nid006342
Date:   Thu Aug  8 08:41:24 2024
Arch:   x86_64
Pid:    1770951
CWD:    /pscratch/sd/y/yiyangfu/01_test/02.preprocissing/01_pre_random
Python: 3.12.3

  ___ ___ ___ _ _ _  
 |   |   |_  | | | | 
 | | | | | . | | | | 
 |__ |  _|___|_____|  24.6.0
 |___|_|             

User:   yiyangfu@nid006342
Date:   Thu Aug  8 08:41:24 2024
Arch:   x86_64
Pid:    1770952
CWD:    /pscratch/sd/y/yiyangfu/01_test/02.preprocissing/01_pre_random
Python: 3.12.3

  ___ ___ ___ _ _ _  
 |   |   |_  | | | | 
 | | | | | . | | | | 
 |__ |  _|___|_____|  24.6.0
 |___|_|             

User:   yiyangfu@nid006342
Date:   Thu Aug  8 08:41:24 2024
Arch:   x86_64
Pid:    1770983
CWD:    /pscratch/sd/y/yiyangfu/01_test/02.preprocissing/01_pre_random
Python: 3.12.3

  ___ ___ ___ _ _ _  
 |   |   |_  | | | | 
 | | | | | . | | | | 
 |__ |  _|___|_____|  24.6.0
 |___|_|             

User:   yiyangfu@nid006342
Date:   Thu Aug  8 08:41:24 2024
Arch:   x86_64
Pid:    1770981
CWD:    /pscratch/sd/y/yiyangfu/01_test/02.preprocissing/01_pre_random
Python: 3.12.3

  ___ ___ ___ _ _ _  
 |   |   |_  | | | | 
 | | | | | . | | | | 
 |__ |  _|___|_____|  24.6.0
 |___|_|             

User:   yiyangfu@nid006342
Date:   Thu Aug  8 08:41:24 2024
Arch:   x86_64
Pid:    1770979
CWD:    /pscratch/sd/y/yiyangfu/01_test/02.preprocissing/01_pre_random
Python: 3.12.3

  ___ ___ ___ _ _ _  
 |   |   |_  | | | | 
 | | | | | . | | | | 
 |__ |  _|___|_____|  24.6.0
 |___|_|             

User:   yiyangfu@nid006342
Date:   Thu Aug  8 08:41:24 2024
Arch:   x86_64
Pid:    1770971
CWD:    /pscratch/sd/y/yiyangfu/01_test/02.preprocissing/01_pre_random
Python: 3.12.3

  ___ ___ ___ _ _ _  
 |   |   |_  | | | | 
 | | | | | . | | | | 
 |__ |  _|___|_____|  24.6.0
 |___|_|             

User:   yiyangfu@nid006342
Date:   Thu Aug  8 08:41:24 2024
Arch:   x86_64
Pid:    1770938
CWD:    /pscratch/sd/y/yiyangfu/01_test/02.preprocissing/01_pre_random
Python: 3.12.3

  ___ ___ ___ _ _ _  
 |   |   |_  | | | | 
 | | | | | . | | | | 
 |__ |  _|___|_____|  24.6.0
 |___|_|             

User:   yiyangfu@nid006342
Date:   Thu Aug  8 08:41:24 2024
Arch:   x86_64
Pid:    1770958
CWD:    /pscratch/sd/y/yiyangfu/01_test/02.preprocissing/01_pre_random
Python: 3.12.3

  ___ ___ ___ _ _ _  
 |   |   |_  | | | | 
 | | | | | . | | | | 
 |__ |  _|___|_____|  24.6.0
 |___|_|             

User:   yiyangfu@nid006342
Date:   Thu Aug  8 08:41:24 2024
Arch:   x86_64
Pid:    1770948
CWD:    /pscratch/sd/y/yiyangfu/01_test/02.preprocissing/01_pre_random
Python: 3.12.3
User:   yiyangfu@nid006342
Date:   Thu Aug  8 08:41:24 2024
Arch:   x86_64
Pid:    1770944
CWD:    /pscratch/sd/y/yiyangfu/01_test/02.preprocissing/01_pre_random
Python: 3.12.3

  ___ ___ ___ _ _ _  
 |   |   |_  | | | | 
 | | | | | . | | | | 
 |__ |  _|___|_____|  24.6.0
 |___|_|             

User:   yiyangfu@nid006342
Date:   Thu Aug  8 08:41:24 2024
Arch:   x86_64
Pid:    1770963
CWD:    /pscratch/sd/y/yiyangfu/01_test/02.preprocissing/01_pre_random
Python: 3.12.3

  ___ ___ ___ _ _ _  
 |   |   |_  | | | | 
 | | | | | . | | | | 
 |__ |  _|___|_____|  24.6.0
 |___|_|             

User:   yiyangfu@nid006342
Date:   Thu Aug  8 08:41:24 2024
Arch:   x86_64
Pid:    1770960
CWD:    /pscratch/sd/y/yiyangfu/01_test/02.preprocissing/01_pre_random
Python: 3.12.3

  ___ ___ ___ _ _ _  
 |   |   |_  | | | | 
 | | | | | . | | | | 
 |__ |  _|___|_____|  24.6.0
 |___|_|             

User:   yiyangfu@nid006342
Date:   Thu Aug  8 08:41:24 2024
Arch:   x86_64
Pid:    1770946
CWD:    /pscratch/sd/y/yiyangfu/01_test/02.preprocissing/01_pre_random
Python: 3.12.3

  ___ ___ ___ _ _ _  
 |   |   |_  | | | | 
 | | | | | . | | | | 
 |__ |  _|___|_____|  24.6.0
 |___|_|             

User:   yiyangfu@nid006342
Date:   Thu Aug  8 08:41:24 2024
Arch:   x86_64
Pid:    1770950
CWD:    /pscratch/sd/y/yiyangfu/01_test/02.preprocissing/01_pre_random
Python: 3.12.3

  ___ ___ ___ _ _ _  
 |   |   |_  | | | | 
 | | | | | . | | | | 
 |__ |  _|___|_____|  24.6.0
 |___|_|             

User:   yiyangfu@nid006342
Date:   Thu Aug  8 08:41:24 2024
Arch:   x86_64
Pid:    1770955
CWD:    /pscratch/sd/y/yiyangfu/01_test/02.preprocissing/01_pre_random
Python: 3.12.3

  ___ ___ ___ _ _ _  
 |   |   |_  | | | | 
 | | | | | . | | | | 
 |__ |  _|___|_____|  24.6.0
 |___|_|             

User:   yiyangfu@nid006342
Date:   Thu Aug  8 08:41:24 2024
Arch:   x86_64
Pid:    1770957
CWD:    /pscratch/sd/y/yiyangfu/01_test/02.preprocissing/01_pre_random
Python: 3.12.3

  ___ ___ ___ _ _ _  
 |   |   |_  | | | | 
 | | | | | . | | | | 
 |__ |  _|___|_____|  24.6.0
 |___|_|             

User:   yiyangfu@nid006342
Date:   Thu Aug  8 08:41:24 2024
Arch:   x86_64
Pid:    1770939
CWD:    /pscratch/sd/y/yiyangfu/01_test/02.preprocissing/01_pre_random
Python: 3.12.3

  ___ ___ ___ _ _ _  
 |   |   |_  | | | | 
 | | | | | . | | | | 
 |__ |  _|___|_____|  24.6.0
 |___|_|             

User:   yiyangfu@nid006342
Date:   Thu Aug  8 08:41:24 2024
Arch:   x86_64
Pid:    1770956
CWD:    /pscratch/sd/y/yiyangfu/01_test/02.preprocissing/01_pre_random
Python: 3.12.3

  ___ ___ ___ _ _ _  
 |   |   |_  | | | | 
 | | | | | . | | | | 
 |__ |  _|___|_____|  24.6.0
 |___|_|             

User:   yiyangfu@nid006342
Date:   Thu Aug  8 08:41:24 2024
Arch:   x86_64
Pid:    1770964
CWD:    /pscratch/sd/y/yiyangfu/01_test/02.preprocissing/01_pre_random
Python: 3.12.3

  ___ ___ ___ _ _ _  
 |   |   |_  | | | | 
 | | | | | . | | | | 
 |__ |  _|___|_____|  24.6.0
 |___|_|             

User:   yiyangfu@nid006342
Date:   Thu Aug  8 08:41:24 2024
Arch:   x86_64
Pid:    1770942
CWD:    /pscratch/sd/y/yiyangfu/01_test/02.preprocissing/01_pre_random
Python: 3.12.3

  ___ ___ ___ _ _ _  
 |   |   |_  | | | | 
 | | | | | . | | | | 
 |__ |  _|___|_____|  24.6.0
 |___|_|             

User:   yiyangfu@nid006342
Date:   Thu Aug  8 08:41:24 2024
Arch:   x86_64
Pid:    1770940
CWD:    /pscratch/sd/y/yiyangfu/01_test/02.preprocissing/01_pre_random
Python: 3.12.3

  ___ ___ ___ _ _ _  
 |   |   |_  | | | | 
 | | | | | . | | | | 
 |__ |  _|___|_____|  24.6.0
 |___|_|             

User:   yiyangfu@nid006342
Date:   Thu Aug  8 08:41:24 2024
Arch:   x86_64
Pid:    1770953
CWD:    /pscratch/sd/y/yiyangfu/01_test/02.preprocissing/01_pre_random
Python: 3.12.3

  ___ ___ ___ _ _ _  
 |   |   |_  | | | | 
 | | | | | . | | | | 
 |__ |  _|___|_____|  24.6.0
 |___|_|             

User:   yiyangfu@nid006342
Date:   Thu Aug  8 08:41:24 2024
Arch:   x86_64
Pid:    1770965
CWD:    /pscratch/sd/y/yiyangfu/01_test/02.preprocissing/01_pre_random
Python: 3.12.3

  ___ ___ ___ _ _ _  
 |   |   |_  | | | | 
 | | | | | . | | | | 
 |__ |  _|___|_____|  24.6.0
 |___|_|             

User:   yiyangfu@nid006342
Date:   Thu Aug  8 08:41:24 2024
Arch:   x86_64
Pid:    1770966
CWD:    /pscratch/sd/y/yiyangfu/01_test/02.preprocissing/01_pre_random
Python: 3.12.3

  ___ ___ ___ _ _ _  
 |   |   |_  | | | | 
 | | | | | . | | | | 
 |__ |  _|___|_____|  24.6.0
 |___|_|             

User:   yiyangfu@nid006342
Date:   Thu Aug  8 08:41:24 2024
Arch:   x86_64
Pid:    1770941
CWD:    /pscratch/sd/y/yiyangfu/01_test/02.preprocissing/01_pre_random
Python: 3.12.3
Date:   Thu Aug  8 08:41:24 2024
Arch:   x86_64
Pid:    1770968
CWD:    /pscratch/sd/y/yiyangfu/01_test/02.preprocissing/01_pre_random
Python: 3.12.3

  ___ ___ ___ _ _ _  
 |   |   |_  | | | | 
 | | | | | . | | | | 
 |__ |  _|___|_____|  24.6.0
 |___|_|             

User:   yiyangfu@nid006342
Date:   Thu Aug  8 08:41:24 2024
Arch:   x86_64
Pid:    1770962
CWD:    /pscratch/sd/y/yiyangfu/01_test/02.preprocissing/01_pre_random
Python: 3.12.3
Pid:    1770945
CWD:    /pscratch/sd/y/yiyangfu/01_test/02.preprocissing/01_pre_random
Python: 3.12.3
gpaw:   /global/homes/y/yiyangfu/anaconda3/envs/gpaw/lib/python3.12/site-packages/gpaw
_gpaw:  /global/homes/y/yiyangfu/anaconda3/envs/gpaw/lib/python3.12/site-packages/
        _gpaw.cpython-312-x86_64-linux-gnu.so
gpaw:   /global/homes/y/yiyangfu/anaconda3/envs/gpaw/lib/python3.12/site-packages/gpaw
_gpaw:  /global/homes/y/yiyangfu/anaconda3/envs/gpaw/lib/python3.12/site-packages/
        _gpaw.cpython-312-x86_64-linux-gnu.so
gpaw:   /global/homes/y/yiyangfu/anaconda3/envs/gpaw/lib/python3.12/site-packages/gpaw
_gpaw:  /global/homes/y/yiyangfu/anaconda3/envs/gpaw/lib/python3.12/site-packages/
        _gpaw.cpython-312-x86_64-linux-gnu.so
gpaw:   /global/homes/y/yiyangfu/anaconda3/envs/gpaw/lib/python3.12/site-packages/gpaw
_gpaw:  /global/homes/y/yiyangfu/anaconda3/envs/gpaw/lib/python3.12/site-packages/
        _gpaw.cpython-312-x86_64-linux-gnu.so
gpaw:   /global/homes/y/yiyangfu/anaconda3/envs/gpaw/lib/python3.12/site-packages/gpaw
_gpaw:  /global/homes/y/yiyangfu/anaconda3/envs/gpaw/lib/python3.12/site-packages/
        _gpaw.cpython-312-x86_64-linux-gnu.so
gpaw:   /global/homes/y/yiyangfu/anaconda3/envs/gpaw/lib/python3.12/site-packages/gpaw
_gpaw:  /global/homes/y/yiyangfu/anaconda3/envs/gpaw/lib/python3.12/site-packages/
        _gpaw.cpython-312-x86_64-linux-gnu.so
gpaw:   /global/homes/y/yiyangfu/anaconda3/envs/gpaw/lib/python3.12/site-packages/gpaw
_gpaw:  /global/homes/y/yiyangfu/anaconda3/envs/gpaw/lib/python3.12/site-packages/
        _gpaw.cpython-312-x86_64-linux-gnu.so
gpaw:   /global/homes/y/yiyangfu/anaconda3/envs/gpaw/lib/python3.12/site-packages/gpaw
_gpaw:  /global/homes/y/yiyangfu/anaconda3/envs/gpaw/lib/python3.12/site-packages/
        _gpaw.cpython-312-x86_64-linux-gnu.so
gpaw:   /global/homes/y/yiyangfu/anaconda3/envs/gpaw/lib/python3.12/site-packages/gpaw
_gpaw:  /global/homes/y/yiyangfu/anaconda3/envs/gpaw/lib/python3.12/site-packages/
        _gpaw.cpython-312-x86_64-linux-gnu.so
gpaw:   /global/homes/y/yiyangfu/anaconda3/envs/gpaw/lib/python3.12/site-packages/gpaw
_gpaw:  /global/homes/y/yiyangfu/anaconda3/envs/gpaw/lib/python3.12/site-packages/
        _gpaw.cpython-312-x86_64-linux-gnu.so
gpaw:   /global/homes/y/yiyangfu/anaconda3/envs/gpaw/lib/python3.12/site-packages/gpaw
_gpaw:  /global/homes/y/yiyangfu/anaconda3/envs/gpaw/lib/python3.12/site-packages/
        _gpaw.cpython-312-x86_64-linux-gnu.so
ase:    /global/homes/y/yiyangfu/anaconda3/envs/gpaw/lib/python3.12/site-packages/ase (version 3.23.0)
numpy:  /global/homes/y/yiyangfu/anaconda3/envs/gpaw/lib/python3.12/site-packages/numpy (version 1.26.4)
scipy:  /global/homes/y/yiyangfu/anaconda3/envs/gpaw/lib/python3.12/site-packages/scipy (version 1.14.0)
libxc:  6.2.2
units:  Angstrom and eV
cores: 1
OpenMP: True
OMP_NUM_THREADS: 1

Input parameters:
ase:    /global/homes/y/yiyangfu/anaconda3/envs/gpaw/lib/python3.12/site-packages/ase (version 3.23.0)
numpy:  /global/homes/y/yiyangfu/anaconda3/envs/gpaw/lib/python3.12/site-packages/numpy (version 1.26.4)
scipy:  /global/homes/y/yiyangfu/anaconda3/envs/gpaw/lib/python3.12/site-packages/scipy (version 1.14.0)
libxc:  6.2.2
units:  Angstrom and eV
cores: 1
OpenMP: True
OMP_NUM_THREADS: 1

  kpts: {gamma: True,
         size: (6, 6, 1)}
  mode: {ecut: 100.0,
         name: pw}
  occupations: {fixmagmom: False,
                name: fermi-dirac,
                width: 0.01}
  random: True
  xc: PBE

Input parameters:
gpaw:   /global/homes/y/yiyangfu/anaconda3/envs/gpaw/lib/python3.12/site-packages/gpaw
  kpts: {gamma: True,
         size: (6, 6, 1)}
_gpaw:  /global/homes/y/yiyangfu/anaconda3/envs/gpaw/lib/python3.12/site-packages/
        _gpaw.cpython-312-x86_64-linux-gnu.so
  mode: {ecut: 100.0,
         name: pw}
  occupations: {fixmagmom: False,
                name: fermi-dirac,
                width: 0.01}
  random: True
System changes: positions, numbers, cell, pbc, initial_charges, initial_magmoms 

Initialize ...

  xc: PBE

System changes: positions, numbers, cell, pbc, initial_charges, initial_magmoms 

Initialize ...

ase:    /global/homes/y/yiyangfu/anaconda3/envs/gpaw/lib/python3.12/site-packages/ase (version 3.23.0)
numpy:  /global/homes/y/yiyangfu/anaconda3/envs/gpaw/lib/python3.12/site-packages/numpy (version 1.26.4)
scipy:  /global/homes/y/yiyangfu/anaconda3/envs/gpaw/lib/python3.12/site-packages/scipy (version 1.14.0)
libxc:  6.2.2
units:  Angstrom and eV
cores: 1
OpenMP: True
OMP_NUM_THREADS: 1

Input parameters:
ase:    /global/homes/y/yiyangfu/anaconda3/envs/gpaw/lib/python3.12/site-packages/ase (version 3.23.0)
numpy:  /global/homes/y/yiyangfu/anaconda3/envs/gpaw/lib/python3.12/site-packages/numpy (version 1.26.4)
scipy:  /global/homes/y/yiyangfu/anaconda3/envs/gpaw/lib/python3.12/site-packages/scipy (version 1.14.0)
libxc:  6.2.2
units:  Angstrom and eV
cores: 1
OpenMP: True
  kpts: {gamma: True,
         size: (6, 6, 1)}
OMP_NUM_THREADS: 1

  mode: {ecut: 100.0,
         name: pw}
  occupations: {fixmagmom: False,
                name: fermi-dirac,
                width: 0.01}
  random: True
  xc: PBE

System changes: positions, numbers, cell, pbc, initial_charges, initial_magmoms 

Input parameters:
Initialize ...

gpaw:   /global/homes/y/yiyangfu/anaconda3/envs/gpaw/lib/python3.12/site-packages/gpaw
_gpaw:  /global/homes/y/yiyangfu/anaconda3/envs/gpaw/lib/python3.12/site-packages/
        _gpaw.cpython-312-x86_64-linux-gnu.so
  kpts: {gamma: True,
         size: (6, 6, 1)}
  mode: {ecut: 100.0,
         name: pw}
  occupations: {fixmagmom: False,
                name: fermi-dirac,
                width: 0.01}
  random: True
  xc: PBE

System changes: positions, numbers, cell, pbc, initial_charges, initial_magmoms 

Initialize ...

ase:    /global/homes/y/yiyangfu/anaconda3/envs/gpaw/lib/python3.12/site-packages/ase (version 3.23.0)
numpy:  /global/homes/y/yiyangfu/anaconda3/envs/gpaw/lib/python3.12/site-packages/numpy (version 1.26.4)
scipy:  /global/homes/y/yiyangfu/anaconda3/envs/gpaw/lib/python3.12/site-packages/scipy (version 1.14.0)
libxc:  6.2.2
units:  Angstrom and eV
cores: 1
OpenMP: True
OMP_NUM_THREADS: 1

Input parameters:
  kpts: {gamma: True,
         size: (6, 6, 1)}
ase:    /global/homes/y/yiyangfu/anaconda3/envs/gpaw/lib/python3.12/site-packages/ase (version 3.23.0)
  mode: {ecut: 100.0,
         name: pw}
  occupations: {fixmagmom: False,
                name: fermi-dirac,
                width: 0.01}
numpy:  /global/homes/y/yiyangfu/anaconda3/envs/gpaw/lib/python3.12/site-packages/numpy (version 1.26.4)
scipy:  /global/homes/y/yiyangfu/anaconda3/envs/gpaw/lib/python3.12/site-packages/scipy (version 1.14.0)
libxc:  6.2.2
units:  Angstrom and eV
  random: True
cores: 1
OpenMP: True
OMP_NUM_THREADS: 1

  xc: PBE

System changes: positions, numbers, cell, pbc, initial_charges, initial_magmoms 

Initialize ...

ase:    /global/homes/y/yiyangfu/anaconda3/envs/gpaw/lib/python3.12/site-packages/ase (version 3.23.0)
numpy:  /global/homes/y/yiyangfu/anaconda3/envs/gpaw/lib/python3.12/site-packages/numpy (version 1.26.4)
scipy:  /global/homes/y/yiyangfu/anaconda3/envs/gpaw/lib/python3.12/site-packages/scipy (version 1.14.0)
libxc:  6.2.2
units:  Angstrom and eV
cores: 1
Input parameters:
OpenMP: True
OMP_NUM_THREADS: 1

  kpts: {gamma: True,
         size: (6, 6, 1)}
  mode: {ecut: 100.0,
         name: pw}
  occupations: {fixmagmom: False,
                name: fermi-dirac,
                width: 0.01}
  random: True
  xc: PBE

Input parameters:
ase:    /global/homes/y/yiyangfu/anaconda3/envs/gpaw/lib/python3.12/site-packages/ase (version 3.23.0)
numpy:  /global/homes/y/yiyangfu/anaconda3/envs/gpaw/lib/python3.12/site-packages/numpy (version 1.26.4)
scipy:  /global/homes/y/yiyangfu/anaconda3/envs/gpaw/lib/python3.12/site-packages/scipy (version 1.14.0)
  kpts: {gamma: True,
         size: (6, 6, 1)}
libxc:  6.2.2
units:  Angstrom and eV
cores: 1
OpenMP: True
OMP_NUM_THREADS: 1

  mode: {ecut: 100.0,
         name: pw}
  occupations: {fixmagmom: False,
                name: fermi-dirac,
                width: 0.01}
  random: True
System changes: positions, numbers, cell, pbc, initial_charges, initial_magmoms 

  xc: PBE

Initialize ...

System changes: positions, numbers, cell, pbc, initial_charges, initial_magmoms 

Initialize ...

Input parameters:
gpaw:   /global/homes/y/yiyangfu/anaconda3/envs/gpaw/lib/python3.12/site-packages/gpaw
_gpaw:  /global/homes/y/yiyangfu/anaconda3/envs/gpaw/lib/python3.12/site-packages/
        _gpaw.cpython-312-x86_64-linux-gnu.so
  kpts: {gamma: True,
         size: (6, 6, 1)}
  mode: {ecut: 100.0,
         name: pw}
  occupations: {fixmagmom: False,
                name: fermi-dirac,
                width: 0.01}
  random: True
  xc: PBE

gpaw:   /global/homes/y/yiyangfu/anaconda3/envs/gpaw/lib/python3.12/site-packages/gpaw
System changes: positions, numbers, cell, pbc, initial_charges, initial_magmoms 

Initialize ...

_gpaw:  /global/homes/y/yiyangfu/anaconda3/envs/gpaw/lib/python3.12/site-packages/
        _gpaw.cpython-312-x86_64-linux-gnu.so
gpaw:   /global/homes/y/yiyangfu/anaconda3/envs/gpaw/lib/python3.12/site-packages/gpaw
_gpaw:  /global/homes/y/yiyangfu/anaconda3/envs/gpaw/lib/python3.12/site-packages/
        _gpaw.cpython-312-x86_64-linux-gnu.so
gpaw:   /global/homes/y/yiyangfu/anaconda3/envs/gpaw/lib/python3.12/site-packages/gpaw
_gpaw:  /global/homes/y/yiyangfu/anaconda3/envs/gpaw/lib/python3.12/site-packages/
        _gpaw.cpython-312-x86_64-linux-gnu.so
gpaw:   /global/homes/y/yiyangfu/anaconda3/envs/gpaw/lib/python3.12/site-packages/gpaw
_gpaw:  /global/homes/y/yiyangfu/anaconda3/envs/gpaw/lib/python3.12/site-packages/
        _gpaw.cpython-312-x86_64-linux-gnu.so
gpaw:   /global/homes/y/yiyangfu/anaconda3/envs/gpaw/lib/python3.12/site-packages/gpaw
scf calculation for wfs-14880
_gpaw:  /global/homes/y/yiyangfu/anaconda3/envs/gpaw/lib/python3.12/site-packages/
        _gpaw.cpython-312-x86_64-linux-gnu.so
ase:    /global/homes/y/yiyangfu/anaconda3/envs/gpaw/lib/python3.12/site-packages/ase (version 3.23.0)
numpy:  /global/homes/y/yiyangfu/anaconda3/envs/gpaw/lib/python3.12/site-packages/numpy (version 1.26.4)
scipy:  /global/homes/y/yiyangfu/anaconda3/envs/gpaw/lib/python3.12/site-packages/scipy (version 1.14.0)
libxc:  6.2.2
units:  Angstrom and eV
cores: 1
OpenMP: True
OMP_NUM_THREADS: 1

Input parameters:
gpaw:   /global/homes/y/yiyangfu/anaconda3/envs/gpaw/lib/python3.12/site-packages/gpaw
_gpaw:  /global/homes/y/yiyangfu/anaconda3/envs/gpaw/lib/python3.12/site-packages/
        _gpaw.cpython-312-x86_64-linux-gnu.so
  kpts: {gamma: True,
         size: (6, 6, 1)}
  mode: {ecut: 100.0,
         name: pw}
  occupations: {fixmagmom: False,
                name: fermi-dirac,
                width: 0.01}
  random: True
  xc: PBE

gpaw:   /global/homes/y/yiyangfu/anaconda3/envs/gpaw/lib/python3.12/site-packages/gpaw
_gpaw:  /global/homes/y/yiyangfu/anaconda3/envs/gpaw/lib/python3.12/site-packages/
        _gpaw.cpython-312-x86_64-linux-gnu.so
System changes: positions, numbers, cell, pbc, initial_charges, initial_magmoms 

Initialize ...

gpaw:   /global/homes/y/yiyangfu/anaconda3/envs/gpaw/lib/python3.12/site-packages/gpaw
_gpaw:  /global/homes/y/yiyangfu/anaconda3/envs/gpaw/lib/python3.12/site-packages/
        _gpaw.cpython-312-x86_64-linux-gnu.so
gpaw:   /global/homes/y/yiyangfu/anaconda3/envs/gpaw/lib/python3.12/site-packages/gpaw
_gpaw:  /global/homes/y/yiyangfu/anaconda3/envs/gpaw/lib/python3.12/site-packages/
        _gpaw.cpython-312-x86_64-linux-gnu.so
gpaw:   /global/homes/y/yiyangfu/anaconda3/envs/gpaw/lib/python3.12/site-packages/gpaw
_gpaw:  /global/homes/y/yiyangfu/anaconda3/envs/gpaw/lib/python3.12/site-packages/
        _gpaw.cpython-312-x86_64-linux-gnu.so
ase:    /global/homes/y/yiyangfu/anaconda3/envs/gpaw/lib/python3.12/site-packages/ase (version 3.23.0)
numpy:  /global/homes/y/yiyangfu/anaconda3/envs/gpaw/lib/python3.12/site-packages/numpy (version 1.26.4)
scipy:  /global/homes/y/yiyangfu/anaconda3/envs/gpaw/lib/python3.12/site-packages/scipy (version 1.14.0)
libxc:  6.2.2
units:  Angstrom and eV
cores: 1
OpenMP: True
OMP_NUM_THREADS: 1

Input parameters:
gpaw:   /global/homes/y/yiyangfu/anaconda3/envs/gpaw/lib/python3.12/site-packages/gpaw
_gpaw:  /global/homes/y/yiyangfu/anaconda3/envs/gpaw/lib/python3.12/site-packages/
        _gpaw.cpython-312-x86_64-linux-gnu.so
  kpts: {gamma: True,
         size: (6, 6, 1)}
  mode: {ecut: 100.0,
         name: pw}
  occupations: {fixmagmom: False,
                name: fermi-dirac,
                width: 0.01}
  random: True
  xc: PBE

System changes: positions, numbers, cell, pbc, initial_charges, initial_magmoms 

Initialize ...

ase:    /global/homes/y/yiyangfu/anaconda3/envs/gpaw/lib/python3.12/site-packages/ase (version 3.23.0)
numpy:  /global/homes/y/yiyangfu/anaconda3/envs/gpaw/lib/python3.12/site-packages/numpy (version 1.26.4)
scipy:  /global/homes/y/yiyangfu/anaconda3/envs/gpaw/lib/python3.12/site-packages/scipy (version 1.14.0)
libxc:  6.2.2
units:  Angstrom and eV
cores: 1
OpenMP: True
OMP_NUM_THREADS: 1

ase:    /global/homes/y/yiyangfu/anaconda3/envs/gpaw/lib/python3.12/site-packages/ase (version 3.23.0)
numpy:  /global/homes/y/yiyangfu/anaconda3/envs/gpaw/lib/python3.12/site-packages/numpy (version 1.26.4)
scipy:  /global/homes/y/yiyangfu/anaconda3/envs/gpaw/lib/python3.12/site-packages/scipy (version 1.14.0)
Input parameters:
libxc:  6.2.2
units:  Angstrom and eV
cores: 1
OpenMP: True
OMP_NUM_THREADS: 1

  kpts: {gamma: True,
         size: (6, 6, 1)}
  mode: {ecut: 100.0,
         name: pw}
  occupations: {fixmagmom: False,
                name: fermi-dirac,
                width: 0.01}
  random: True
  xc: PBE

Input parameters:
gpaw:   /global/homes/y/yiyangfu/anaconda3/envs/gpaw/lib/python3.12/site-packages/gpaw
_gpaw:  /global/homes/y/yiyangfu/anaconda3/envs/gpaw/lib/python3.12/site-packages/
        _gpaw.cpython-312-x86_64-linux-gnu.so
System changes: positions, numbers, cell, pbc, initial_charges, initial_magmoms 

Initialize ...

  kpts: {gamma: True,
         size: (6, 6, 1)}
  mode: {ecut: 100.0,
         name: pw}
  occupations: {fixmagmom: False,
                name: fermi-dirac,
                width: 0.01}
  random: True
  xc: PBE

System changes: positions, numbers, cell, pbc, initial_charges, initial_magmoms 

ase:    /global/homes/y/yiyangfu/anaconda3/envs/gpaw/lib/python3.12/site-packages/ase (version 3.23.0)
Initialize ...

numpy:  /global/homes/y/yiyangfu/anaconda3/envs/gpaw/lib/python3.12/site-packages/numpy (version 1.26.4)
scipy:  /global/homes/y/yiyangfu/anaconda3/envs/gpaw/lib/python3.12/site-packages/scipy (version 1.14.0)
libxc:  6.2.2
units:  Angstrom and eV
cores: 1
OpenMP: True
OMP_NUM_THREADS: 1

Input parameters:
gpaw:   /global/homes/y/yiyangfu/anaconda3/envs/gpaw/lib/python3.12/site-packages/gpaw
_gpaw:  /global/homes/y/yiyangfu/anaconda3/envs/gpaw/lib/python3.12/site-packages/
        _gpaw.cpython-312-x86_64-linux-gnu.so
  kpts: {gamma: True,
         size: (6, 6, 1)}
  mode: {ecut: 100.0,
         name: pw}
  occupations: {fixmagmom: False,
                name: fermi-dirac,
                width: 0.01}
  random: True
  xc: PBE

System changes: positions, numbers, cell, pbc, initial_charges, initial_magmoms 

Initialize ...

ase:    /global/homes/y/yiyangfu/anaconda3/envs/gpaw/lib/python3.12/site-packages/ase (version 3.23.0)
numpy:  /global/homes/y/yiyangfu/anaconda3/envs/gpaw/lib/python3.12/site-packages/numpy (version 1.26.4)
scipy:  /global/homes/y/yiyangfu/anaconda3/envs/gpaw/lib/python3.12/site-packages/scipy (version 1.14.0)
libxc:  6.2.2
units:  Angstrom and eV
cores: 1
OpenMP: True
OMP_NUM_THREADS: 1

Input parameters:
ase:    /global/homes/y/yiyangfu/anaconda3/envs/gpaw/lib/python3.12/site-packages/ase (version 3.23.0)
numpy:  /global/homes/y/yiyangfu/anaconda3/envs/gpaw/lib/python3.12/site-packages/numpy (version 1.26.4)
scipy:  /global/homes/y/yiyangfu/anaconda3/envs/gpaw/lib/python3.12/site-packages/scipy (version 1.14.0)
libxc:  6.2.2
units:  Angstrom and eV
  kpts: {gamma: True,
         size: (6, 6, 1)}
cores: 1
OpenMP: True
OMP_NUM_THREADS: 1

  mode: {ecut: 100.0,
         name: pw}
  occupations: {fixmagmom: False,
                name: fermi-dirac,
                width: 0.01}
  random: True
  xc: PBE

  ___ ___ ___ _ _ _  
 |   |   |_  | | | | 
 | | | | | . | | | | 
 |__ |  _|___|_____|  24.6.0
 |___|_|             


User:   yiyangfu@nid006342
Date:   Thu Aug  8 08:41:24 2024
Arch:   x86_64
Pid:    1770937
CWD:    /pscratch/sd/y/yiyangfu/01_test/02.preprocissing/01_pre_random
Python: 3.12.3
gpaw:   /global/homes/y/yiyangfu/anaconda3/envs/gpaw/lib/python3.12/site-packages/gpaw
System changes: positions, numbers, cell, pbc, initial_charges, initial_magmoms 

Initialize ...

_gpaw:  /global/homes/y/yiyangfu/anaconda3/envs/gpaw/lib/python3.12/site-packages/
        _gpaw.cpython-312-x86_64-linux-gnu.so
Input parameters:
  kpts: {gamma: True,
         size: (6, 6, 1)}
  mode: {ecut: 100.0,
         name: pw}
  occupations: {fixmagmom: False,
                name: fermi-dirac,
                width: 0.01}
  random: True
  xc: PBE

gpaw:   /global/homes/y/yiyangfu/anaconda3/envs/gpaw/lib/python3.12/site-packages/gpaw
System changes: positions, numbers, cell, pbc, initial_charges, initial_magmoms 

_gpaw:  /global/homes/y/yiyangfu/anaconda3/envs/gpaw/lib/python3.12/site-packages/
        _gpaw.cpython-312-x86_64-linux-gnu.so
Initialize ...

ase:    /global/homes/y/yiyangfu/anaconda3/envs/gpaw/lib/python3.12/site-packages/ase (version 3.23.0)
numpy:  /global/homes/y/yiyangfu/anaconda3/envs/gpaw/lib/python3.12/site-packages/numpy (version 1.26.4)
scipy:  /global/homes/y/yiyangfu/anaconda3/envs/gpaw/lib/python3.12/site-packages/scipy (version 1.14.0)
libxc:  6.2.2
units:  Angstrom and eV
cores: 1
OpenMP: True
OMP_NUM_THREADS: 1

Input parameters:
ase:    /global/homes/y/yiyangfu/anaconda3/envs/gpaw/lib/python3.12/site-packages/ase (version 3.23.0)
numpy:  /global/homes/y/yiyangfu/anaconda3/envs/gpaw/lib/python3.12/site-packages/numpy (version 1.26.4)
scipy:  /global/homes/y/yiyangfu/anaconda3/envs/gpaw/lib/python3.12/site-packages/scipy (version 1.14.0)
libxc:  6.2.2
units:  Angstrom and eV
cores: 1
  kpts: {gamma: True,
         size: (6, 6, 1)}
OpenMP: True
OMP_NUM_THREADS: 1

  mode: {ecut: 100.0,
         name: pw}
  occupations: {fixmagmom: False,
                name: fermi-dirac,
                width: 0.01}
  random: True
  xc: PBE

System changes: positions, numbers, cell, pbc, initial_charges, initial_magmoms 

Input parameters:
gpaw:   /global/homes/y/yiyangfu/anaconda3/envs/gpaw/lib/python3.12/site-packages/gpaw
Initialize ...

_gpaw:  /global/homes/y/yiyangfu/anaconda3/envs/gpaw/lib/python3.12/site-packages/
        _gpaw.cpython-312-x86_64-linux-gnu.so
  kpts: {gamma: True,
         size: (6, 6, 1)}
  mode: {ecut: 100.0,
         name: pw}
  occupations: {fixmagmom: False,
                name: fermi-dirac,
                width: 0.01}
  random: True
  xc: PBE

ase:    /global/homes/y/yiyangfu/anaconda3/envs/gpaw/lib/python3.12/site-packages/ase (version 3.23.0)
System changes: positions, numbers, cell, pbc, initial_charges, initial_magmoms 

Initialize ...

numpy:  /global/homes/y/yiyangfu/anaconda3/envs/gpaw/lib/python3.12/site-packages/numpy (version 1.26.4)
scipy:  /global/homes/y/yiyangfu/anaconda3/envs/gpaw/lib/python3.12/site-packages/scipy (version 1.14.0)
libxc:  6.2.2
units:  Angstrom and eV
cores: 1
OpenMP: True
OMP_NUM_THREADS: 1

ase:    /global/homes/y/yiyangfu/anaconda3/envs/gpaw/lib/python3.12/site-packages/ase (version 3.23.0)
numpy:  /global/homes/y/yiyangfu/anaconda3/envs/gpaw/lib/python3.12/site-packages/numpy (version 1.26.4)
Input parameters:
scipy:  /global/homes/y/yiyangfu/anaconda3/envs/gpaw/lib/python3.12/site-packages/scipy (version 1.14.0)
libxc:  6.2.2
units:  Angstrom and eV
cores: 1
OpenMP: True
OMP_NUM_THREADS: 1

  kpts: {gamma: True,
         size: (6, 6, 1)}
  mode: {ecut: 100.0,
         name: pw}
  occupations: {fixmagmom: False,
                name: fermi-dirac,
                width: 0.01}
  random: True
  xc: PBE

ase:    /global/homes/y/yiyangfu/anaconda3/envs/gpaw/lib/python3.12/site-packages/ase (version 3.23.0)
numpy:  /global/homes/y/yiyangfu/anaconda3/envs/gpaw/lib/python3.12/site-packages/numpy (version 1.26.4)
Input parameters:
scipy:  /global/homes/y/yiyangfu/anaconda3/envs/gpaw/lib/python3.12/site-packages/scipy (version 1.14.0)
libxc:  6.2.2
units:  Angstrom and eV
cores: 1
OpenMP: True
System changes: positions, numbers, cell, pbc, initial_charges, initial_magmoms 

Initialize ...

OMP_NUM_THREADS: 1

  kpts: {gamma: True,
         size: (6, 6, 1)}
  mode: {ecut: 100.0,
         name: pw}
  occupations: {fixmagmom: False,
                name: fermi-dirac,
                width: 0.01}
  random: True
  xc: PBE

Input parameters:
gpaw:   /global/homes/y/yiyangfu/anaconda3/envs/gpaw/lib/python3.12/site-packages/gpaw
System changes: positions, numbers, cell, pbc, initial_charges, initial_magmoms 

Initialize ...

_gpaw:  /global/homes/y/yiyangfu/anaconda3/envs/gpaw/lib/python3.12/site-packages/
        _gpaw.cpython-312-x86_64-linux-gnu.so
  kpts: {gamma: True,
         size: (6, 6, 1)}
  mode: {ecut: 100.0,
         name: pw}
  occupations: {fixmagmom: False,
                name: fermi-dirac,
                width: 0.01}
  random: True
  xc: PBE

System changes: positions, numbers, cell, pbc, initial_charges, initial_magmoms 

Initialize ...

ase:    /global/homes/y/yiyangfu/anaconda3/envs/gpaw/lib/python3.12/site-packages/ase (version 3.23.0)
numpy:  /global/homes/y/yiyangfu/anaconda3/envs/gpaw/lib/python3.12/site-packages/numpy (version 1.26.4)
scipy:  /global/homes/y/yiyangfu/anaconda3/envs/gpaw/lib/python3.12/site-packages/scipy (version 1.14.0)
libxc:  6.2.2
units:  Angstrom and eV
cores: 1
OpenMP: True
OMP_NUM_THREADS: 1

gpaw:   /global/homes/y/yiyangfu/anaconda3/envs/gpaw/lib/python3.12/site-packages/gpaw
Input parameters:
_gpaw:  /global/homes/y/yiyangfu/anaconda3/envs/gpaw/lib/python3.12/site-packages/
        _gpaw.cpython-312-x86_64-linux-gnu.so
  kpts: {gamma: True,
         size: (6, 6, 1)}
  mode: {ecut: 100.0,
         name: pw}
  occupations: {fixmagmom: False,
                name: fermi-dirac,
                width: 0.01}
  random: True
  xc: PBE

ase:    /global/homes/y/yiyangfu/anaconda3/envs/gpaw/lib/python3.12/site-packages/ase (version 3.23.0)
numpy:  /global/homes/y/yiyangfu/anaconda3/envs/gpaw/lib/python3.12/site-packages/numpy (version 1.26.4)
scipy:  /global/homes/y/yiyangfu/anaconda3/envs/gpaw/lib/python3.12/site-packages/scipy (version 1.14.0)
System changes: positions, numbers, cell, pbc, initial_charges, initial_magmoms 

Initialize ...

libxc:  6.2.2
units:  Angstrom and eV
cores: 1
OpenMP: True
OMP_NUM_THREADS: 1

Input parameters:
gpaw:   /global/homes/y/yiyangfu/anaconda3/envs/gpaw/lib/python3.12/site-packages/gpaw
_gpaw:  /global/homes/y/yiyangfu/anaconda3/envs/gpaw/lib/python3.12/site-packages/
        _gpaw.cpython-312-x86_64-linux-gnu.so
  kpts: {gamma: True,
         size: (6, 6, 1)}
  mode: {ecut: 100.0,
         name: pw}
  occupations: {fixmagmom: False,
                name: fermi-dirac,
                width: 0.01}
  random: True
  xc: PBE

System changes: positions, numbers, cell, pbc, initial_charges, initial_magmoms 

Initialize ...

ase:    /global/homes/y/yiyangfu/anaconda3/envs/gpaw/lib/python3.12/site-packages/ase (version 3.23.0)
numpy:  /global/homes/y/yiyangfu/anaconda3/envs/gpaw/lib/python3.12/site-packages/numpy (version 1.26.4)
scipy:  /global/homes/y/yiyangfu/anaconda3/envs/gpaw/lib/python3.12/site-packages/scipy (version 1.14.0)
libxc:  6.2.2
units:  Angstrom and eV
cores: 1
OpenMP: True
OMP_NUM_THREADS: 1

Input parameters:
gpaw:   /global/homes/y/yiyangfu/anaconda3/envs/gpaw/lib/python3.12/site-packages/gpaw
_gpaw:  /global/homes/y/yiyangfu/anaconda3/envs/gpaw/lib/python3.12/site-packages/
        _gpaw.cpython-312-x86_64-linux-gnu.so
  kpts: {gamma: True,
         size: (6, 6, 1)}
  mode: {ecut: 100.0,
         name: pw}
  occupations: {fixmagmom: False,
                name: fermi-dirac,
                width: 0.01}
  random: True
  xc: PBE

System changes: positions, numbers, cell, pbc, initial_charges, initial_magmoms 

Initialize ...

ase:    /global/homes/y/yiyangfu/anaconda3/envs/gpaw/lib/python3.12/site-packages/ase (version 3.23.0)
numpy:  /global/homes/y/yiyangfu/anaconda3/envs/gpaw/lib/python3.12/site-packages/numpy (version 1.26.4)
scipy:  /global/homes/y/yiyangfu/anaconda3/envs/gpaw/lib/python3.12/site-packages/scipy (version 1.14.0)
libxc:  6.2.2
units:  Angstrom and eV
cores: 1
OpenMP: True
OMP_NUM_THREADS: 1

ase:    /global/homes/y/yiyangfu/anaconda3/envs/gpaw/lib/python3.12/site-packages/ase (version 3.23.0)
numpy:  /global/homes/y/yiyangfu/anaconda3/envs/gpaw/lib/python3.12/site-packages/numpy (version 1.26.4)
scipy:  /global/homes/y/yiyangfu/anaconda3/envs/gpaw/lib/python3.12/site-packages/scipy (version 1.14.0)
libxc:  6.2.2
units:  Angstrom and eV
cores: 1
Input parameters:
OpenMP: True
OMP_NUM_THREADS: 1

  kpts: {gamma: True,
         size: (6, 6, 1)}
  mode: {ecut: 100.0,
         name: pw}
  occupations: {fixmagmom: False,
                name: fermi-dirac,
                width: 0.01}
  random: True
  xc: PBE

Input parameters:
gpaw:   /global/homes/y/yiyangfu/anaconda3/envs/gpaw/lib/python3.12/site-packages/gpaw
_gpaw:  /global/homes/y/yiyangfu/anaconda3/envs/gpaw/lib/python3.12/site-packages/
        _gpaw.cpython-312-x86_64-linux-gnu.so
  kpts: {gamma: True,
         size: (6, 6, 1)}
System changes: positions, numbers, cell, pbc, initial_charges, initial_magmoms 

Initialize ...

  mode: {ecut: 100.0,
         name: pw}
  occupations: {fixmagmom: False,
                name: fermi-dirac,
                width: 0.01}
  random: True
  xc: PBE

gpaw:   /global/homes/y/yiyangfu/anaconda3/envs/gpaw/lib/python3.12/site-packages/gpaw
_gpaw:  /global/homes/y/yiyangfu/anaconda3/envs/gpaw/lib/python3.12/site-packages/
        _gpaw.cpython-312-x86_64-linux-gnu.so
System changes: positions, numbers, cell, pbc, initial_charges, initial_magmoms 

Initialize ...

gpaw:   /global/homes/y/yiyangfu/anaconda3/envs/gpaw/lib/python3.12/site-packages/gpaw
_gpaw:  /global/homes/y/yiyangfu/anaconda3/envs/gpaw/lib/python3.12/site-packages/
        _gpaw.cpython-312-x86_64-linux-gnu.so
ase:    /global/homes/y/yiyangfu/anaconda3/envs/gpaw/lib/python3.12/site-packages/ase (version 3.23.0)
numpy:  /global/homes/y/yiyangfu/anaconda3/envs/gpaw/lib/python3.12/site-packages/numpy (version 1.26.4)
scipy:  /global/homes/y/yiyangfu/anaconda3/envs/gpaw/lib/python3.12/site-packages/scipy (version 1.14.0)
libxc:  6.2.2
units:  Angstrom and eV
cores: 1
OpenMP: True
OMP_NUM_THREADS: 1

gpaw:   /global/homes/y/yiyangfu/anaconda3/envs/gpaw/lib/python3.12/site-packages/gpaw
Input parameters:
_gpaw:  /global/homes/y/yiyangfu/anaconda3/envs/gpaw/lib/python3.12/site-packages/
        _gpaw.cpython-312-x86_64-linux-gnu.so
  kpts: {gamma: True,
         size: (6, 6, 1)}
  mode: {ecut: 100.0,
         name: pw}
  occupations: {fixmagmom: False,
                name: fermi-dirac,
                width: 0.01}
  random: True
  xc: PBE

ase:    /global/homes/y/yiyangfu/anaconda3/envs/gpaw/lib/python3.12/site-packages/ase (version 3.23.0)
numpy:  /global/homes/y/yiyangfu/anaconda3/envs/gpaw/lib/python3.12/site-packages/numpy (version 1.26.4)
scipy:  /global/homes/y/yiyangfu/anaconda3/envs/gpaw/lib/python3.12/site-packages/scipy (version 1.14.0)
libxc:  6.2.2
units:  Angstrom and eV
System changes: positions, numbers, cell, pbc, initial_charges, initial_magmoms 

cores: 1
OpenMP: True
OMP_NUM_THREADS: 1

Initialize ...

Input parameters:
ase:    /global/homes/y/yiyangfu/anaconda3/envs/gpaw/lib/python3.12/site-packages/ase (version 3.23.0)
numpy:  /global/homes/y/yiyangfu/anaconda3/envs/gpaw/lib/python3.12/site-packages/numpy (version 1.26.4)
scipy:  /global/homes/y/yiyangfu/anaconda3/envs/gpaw/lib/python3.12/site-packages/scipy (version 1.14.0)
libxc:  6.2.2
units:  Angstrom and eV
cores: 1
OpenMP: True
  kpts: {gamma: True,
         size: (6, 6, 1)}
OMP_NUM_THREADS: 1

  mode: {ecut: 100.0,
         name: pw}
  occupations: {fixmagmom: False,
                name: fermi-dirac,
                width: 0.01}
  random: True
  xc: PBE

ase:    /global/homes/y/yiyangfu/anaconda3/envs/gpaw/lib/python3.12/site-packages/ase (version 3.23.0)
numpy:  /global/homes/y/yiyangfu/anaconda3/envs/gpaw/lib/python3.12/site-packages/numpy (version 1.26.4)
scipy:  /global/homes/y/yiyangfu/anaconda3/envs/gpaw/lib/python3.12/site-packages/scipy (version 1.14.0)
libxc:  6.2.2
Input parameters:
units:  Angstrom and eV
cores: 1
OpenMP: True
System changes: positions, numbers, cell, pbc, initial_charges, initial_magmoms 

Initialize ...

OMP_NUM_THREADS: 1

  kpts: {gamma: True,
         size: (6, 6, 1)}
  mode: {ecut: 100.0,
         name: pw}
  occupations: {fixmagmom: False,
                name: fermi-dirac,
                width: 0.01}
  random: True
  xc: PBE

gpaw:   /global/homes/y/yiyangfu/anaconda3/envs/gpaw/lib/python3.12/site-packages/gpaw
Input parameters:
_gpaw:  /global/homes/y/yiyangfu/anaconda3/envs/gpaw/lib/python3.12/site-packages/
        _gpaw.cpython-312-x86_64-linux-gnu.so
System changes: positions, numbers, cell, pbc, initial_charges, initial_magmoms 

Initialize ...

  kpts: {gamma: True,
         size: (6, 6, 1)}
  mode: {ecut: 100.0,
         name: pw}
  occupations: {fixmagmom: False,
                name: fermi-dirac,
                width: 0.01}
  random: True
  xc: PBE

ase:    /global/homes/y/yiyangfu/anaconda3/envs/gpaw/lib/python3.12/site-packages/ase (version 3.23.0)
numpy:  /global/homes/y/yiyangfu/anaconda3/envs/gpaw/lib/python3.12/site-packages/numpy (version 1.26.4)
scipy:  /global/homes/y/yiyangfu/anaconda3/envs/gpaw/lib/python3.12/site-packages/scipy (version 1.14.0)
libxc:  6.2.2
units:  Angstrom and eV
System changes: positions, numbers, cell, pbc, initial_charges, initial_magmoms 

Initialize ...

cores: 1
OpenMP: True
OMP_NUM_THREADS: 1

Input parameters:
gpaw:   /global/homes/y/yiyangfu/anaconda3/envs/gpaw/lib/python3.12/site-packages/gpaw
_gpaw:  /global/homes/y/yiyangfu/anaconda3/envs/gpaw/lib/python3.12/site-packages/
        _gpaw.cpython-312-x86_64-linux-gnu.so
  kpts: {gamma: True,
         size: (6, 6, 1)}
  mode: {ecut: 100.0,
         name: pw}
  occupations: {fixmagmom: False,
                name: fermi-dirac,
                width: 0.01}
  random: True
  xc: PBE

System changes: positions, numbers, cell, pbc, initial_charges, initial_magmoms 

Initialize ...

gpaw:   /global/homes/y/yiyangfu/anaconda3/envs/gpaw/lib/python3.12/site-packages/gpaw
_gpaw:  /global/homes/y/yiyangfu/anaconda3/envs/gpaw/lib/python3.12/site-packages/
        _gpaw.cpython-312-x86_64-linux-gnu.so
ase:    /global/homes/y/yiyangfu/anaconda3/envs/gpaw/lib/python3.12/site-packages/ase (version 3.23.0)
numpy:  /global/homes/y/yiyangfu/anaconda3/envs/gpaw/lib/python3.12/site-packages/numpy (version 1.26.4)
scipy:  /global/homes/y/yiyangfu/anaconda3/envs/gpaw/lib/python3.12/site-packages/scipy (version 1.14.0)
libxc:  6.2.2
units:  Angstrom and eV
cores: 1
OpenMP: True
OMP_NUM_THREADS: 1

gpaw:   /global/homes/y/yiyangfu/anaconda3/envs/gpaw/lib/python3.12/site-packages/gpaw
_gpaw:  /global/homes/y/yiyangfu/anaconda3/envs/gpaw/lib/python3.12/site-packages/
        _gpaw.cpython-312-x86_64-linux-gnu.so
Input parameters:
  kpts: {gamma: True,
         size: (6, 6, 1)}
  mode: {ecut: 100.0,
         name: pw}
  occupations: {fixmagmom: False,
                name: fermi-dirac,
                width: 0.01}
  random: True
  xc: PBE

ase:    /global/homes/y/yiyangfu/anaconda3/envs/gpaw/lib/python3.12/site-packages/ase (version 3.23.0)
numpy:  /global/homes/y/yiyangfu/anaconda3/envs/gpaw/lib/python3.12/site-packages/numpy (version 1.26.4)
scipy:  /global/homes/y/yiyangfu/anaconda3/envs/gpaw/lib/python3.12/site-packages/scipy (version 1.14.0)
libxc:  6.2.2
units:  Angstrom and eV
cores: 1
OpenMP: True
OMP_NUM_THREADS: 1

System changes: positions, numbers, cell, pbc, initial_charges, initial_magmoms 

Initialize ...

Input parameters:
gpaw:   /global/homes/y/yiyangfu/anaconda3/envs/gpaw/lib/python3.12/site-packages/gpaw
_gpaw:  /global/homes/y/yiyangfu/anaconda3/envs/gpaw/lib/python3.12/site-packages/
        _gpaw.cpython-312-x86_64-linux-gnu.so
  kpts: {gamma: True,
         size: (6, 6, 1)}
  mode: {ecut: 100.0,
         name: pw}
  occupations: {fixmagmom: False,
                name: fermi-dirac,
                width: 0.01}
  random: True
  xc: PBE

System changes: positions, numbers, cell, pbc, initial_charges, initial_magmoms 

Initialize ...

ase:    /global/homes/y/yiyangfu/anaconda3/envs/gpaw/lib/python3.12/site-packages/ase (version 3.23.0)
numpy:  /global/homes/y/yiyangfu/anaconda3/envs/gpaw/lib/python3.12/site-packages/numpy (version 1.26.4)
scipy:  /global/homes/y/yiyangfu/anaconda3/envs/gpaw/lib/python3.12/site-packages/scipy (version 1.14.0)
libxc:  6.2.2
units:  Angstrom and eV
cores: 1
OpenMP: True
OMP_NUM_THREADS: 1

gpaw:   /global/homes/y/yiyangfu/anaconda3/envs/gpaw/lib/python3.12/site-packages/gpaw
_gpaw:  /global/homes/y/yiyangfu/anaconda3/envs/gpaw/lib/python3.12/site-packages/
        _gpaw.cpython-312-x86_64-linux-gnu.so
Input parameters:
  kpts: {gamma: True,
         size: (6, 6, 1)}
  mode: {ecut: 100.0,
         name: pw}
  occupations: {fixmagmom: False,
                name: fermi-dirac,
                width: 0.01}
  random: True
  xc: PBE

ase:    /global/homes/y/yiyangfu/anaconda3/envs/gpaw/lib/python3.12/site-packages/ase (version 3.23.0)
numpy:  /global/homes/y/yiyangfu/anaconda3/envs/gpaw/lib/python3.12/site-packages/numpy (version 1.26.4)
scipy:  /global/homes/y/yiyangfu/anaconda3/envs/gpaw/lib/python3.12/site-packages/scipy (version 1.14.0)
libxc:  6.2.2
units:  Angstrom and eV
cores: 1
OpenMP: True
OMP_NUM_THREADS: 1

System changes: positions, numbers, cell, pbc, initial_charges, initial_magmoms 

Initialize ...

gpaw:   /global/homes/y/yiyangfu/anaconda3/envs/gpaw/lib/python3.12/site-packages/gpaw
_gpaw:  /global/homes/y/yiyangfu/anaconda3/envs/gpaw/lib/python3.12/site-packages/
        _gpaw.cpython-312-x86_64-linux-gnu.so
Input parameters:
  kpts: {gamma: True,
         size: (6, 6, 1)}
  mode: {ecut: 100.0,
         name: pw}
  occupations: {fixmagmom: False,
                name: fermi-dirac,
                width: 0.01}
  random: True
  xc: PBE

ase:    /global/homes/y/yiyangfu/anaconda3/envs/gpaw/lib/python3.12/site-packages/ase (version 3.23.0)
numpy:  /global/homes/y/yiyangfu/anaconda3/envs/gpaw/lib/python3.12/site-packages/numpy (version 1.26.4)
scipy:  /global/homes/y/yiyangfu/anaconda3/envs/gpaw/lib/python3.12/site-packages/scipy (version 1.14.0)
libxc:  6.2.2
units:  Angstrom and eV
cores: 1
OpenMP: True
OMP_NUM_THREADS: 1

System changes: positions, numbers, cell, pbc, initial_charges, initial_magmoms 

Initialize ...

gpaw:   /global/homes/y/yiyangfu/anaconda3/envs/gpaw/lib/python3.12/site-packages/gpaw
Input parameters:
_gpaw:  /global/homes/y/yiyangfu/anaconda3/envs/gpaw/lib/python3.12/site-packages/
        _gpaw.cpython-312-x86_64-linux-gnu.so
  kpts: {gamma: True,
         size: (6, 6, 1)}
  mode: {ecut: 100.0,
         name: pw}
  occupations: {fixmagmom: False,
                name: fermi-dirac,
                width: 0.01}
  random: True
  xc: PBE

System changes: positions, numbers, cell, pbc, initial_charges, initial_magmoms 

ase:    /global/homes/y/yiyangfu/anaconda3/envs/gpaw/lib/python3.12/site-packages/ase (version 3.23.0)
Initialize ...

numpy:  /global/homes/y/yiyangfu/anaconda3/envs/gpaw/lib/python3.12/site-packages/numpy (version 1.26.4)
scipy:  /global/homes/y/yiyangfu/anaconda3/envs/gpaw/lib/python3.12/site-packages/scipy (version 1.14.0)
libxc:  6.2.2
units:  Angstrom and eV
cores: 1
OpenMP: True
OMP_NUM_THREADS: 1

ase:    /global/homes/y/yiyangfu/anaconda3/envs/gpaw/lib/python3.12/site-packages/ase (version 3.23.0)
numpy:  /global/homes/y/yiyangfu/anaconda3/envs/gpaw/lib/python3.12/site-packages/numpy (version 1.26.4)
scipy:  /global/homes/y/yiyangfu/anaconda3/envs/gpaw/lib/python3.12/site-packages/scipy (version 1.14.0)
libxc:  6.2.2
units:  Angstrom and eV
Input parameters:
cores: 1
OpenMP: True
OMP_NUM_THREADS: 1

  kpts: {gamma: True,
         size: (6, 6, 1)}
  mode: {ecut: 100.0,
         name: pw}
  occupations: {fixmagmom: False,
                name: fermi-dirac,
                width: 0.01}
  random: True
  xc: PBE

Input parameters:
ase:    /global/homes/y/yiyangfu/anaconda3/envs/gpaw/lib/python3.12/site-packages/ase (version 3.23.0)
numpy:  /global/homes/y/yiyangfu/anaconda3/envs/gpaw/lib/python3.12/site-packages/numpy (version 1.26.4)
scipy:  /global/homes/y/yiyangfu/anaconda3/envs/gpaw/lib/python3.12/site-packages/scipy (version 1.14.0)
libxc:  6.2.2
units:  Angstrom and eV
cores: 1
System changes: positions, numbers, cell, pbc, initial_charges, initial_magmoms 

Initialize ...

OpenMP: True
OMP_NUM_THREADS: 1

  kpts: {gamma: True,
         size: (6, 6, 1)}
  mode: {ecut: 100.0,
         name: pw}
  occupations: {fixmagmom: False,
                name: fermi-dirac,
                width: 0.01}
  random: True
OMP: Warning #81: OMP_PROC_BIND: extra trailing characters ignored: "s".
  xc: PBE

gpaw:   /global/homes/y/yiyangfu/anaconda3/envs/gpaw/lib/python3.12/site-packages/gpaw
_gpaw:  /global/homes/y/yiyangfu/anaconda3/envs/gpaw/lib/python3.12/site-packages/
        _gpaw.cpython-312-x86_64-linux-gnu.so
System changes: positions, numbers, cell, pbc, initial_charges, initial_magmoms 

Initialize ...

Input parameters:
  kpts: {gamma: True,
         size: (6, 6, 1)}
  mode: {ecut: 100.0,
         name: pw}
  occupations: {fixmagmom: False,
                name: fermi-dirac,
                width: 0.01}
  random: True
  xc: PBE

gpaw:   /global/homes/y/yiyangfu/anaconda3/envs/gpaw/lib/python3.12/site-packages/gpaw
_gpaw:  /global/homes/y/yiyangfu/anaconda3/envs/gpaw/lib/python3.12/site-packages/
        _gpaw.cpython-312-x86_64-linux-gnu.so
System changes: positions, numbers, cell, pbc, initial_charges, initial_magmoms 

Initialize ...

ase:    /global/homes/y/yiyangfu/anaconda3/envs/gpaw/lib/python3.12/site-packages/ase (version 3.23.0)
numpy:  /global/homes/y/yiyangfu/anaconda3/envs/gpaw/lib/python3.12/site-packages/numpy (version 1.26.4)
scipy:  /global/homes/y/yiyangfu/anaconda3/envs/gpaw/lib/python3.12/site-packages/scipy (version 1.14.0)
libxc:  6.2.2
units:  Angstrom and eV
cores: 1
OpenMP: True
OMP_NUM_THREADS: 1

ase:    /global/homes/y/yiyangfu/anaconda3/envs/gpaw/lib/python3.12/site-packages/ase (version 3.23.0)
numpy:  /global/homes/y/yiyangfu/anaconda3/envs/gpaw/lib/python3.12/site-packages/numpy (version 1.26.4)
scipy:  /global/homes/y/yiyangfu/anaconda3/envs/gpaw/lib/python3.12/site-packages/scipy (version 1.14.0)
libxc:  6.2.2
units:  Angstrom and eV
cores: 1
OpenMP: True
Input parameters:
OMP_NUM_THREADS: 1

  kpts: {gamma: True,
         size: (6, 6, 1)}
  mode: {ecut: 100.0,
         name: pw}
  occupations: {fixmagmom: False,
                name: fermi-dirac,
                width: 0.01}
  random: True
  xc: PBE

gpaw:   /global/homes/y/yiyangfu/anaconda3/envs/gpaw/lib/python3.12/site-packages/gpaw
_gpaw:  /global/homes/y/yiyangfu/anaconda3/envs/gpaw/lib/python3.12/site-packages/
        _gpaw.cpython-312-x86_64-linux-gnu.so
Input parameters:
System changes: positions, numbers, cell, pbc, initial_charges, initial_magmoms 

Initialize ...

  kpts: {gamma: True,
         size: (6, 6, 1)}
  mode: {ecut: 100.0,
         name: pw}
  occupations: {fixmagmom: False,
                name: fermi-dirac,
                width: 0.01}
  random: True
  xc: PBE
gpaw:   /global/homes/y/yiyangfu/anaconda3/envs/gpaw/lib/python3.12/site-packages/gpaw

_gpaw:  /global/homes/y/yiyangfu/anaconda3/envs/gpaw/lib/python3.12/site-packages/
        _gpaw.cpython-312-x86_64-linux-gnu.so
System changes: positions, numbers, cell, pbc, initial_charges, initial_magmoms 

Initialize ...

gpaw:   /global/homes/y/yiyangfu/anaconda3/envs/gpaw/lib/python3.12/site-packages/gpaw
_gpaw:  /global/homes/y/yiyangfu/anaconda3/envs/gpaw/lib/python3.12/site-packages/
        _gpaw.cpython-312-x86_64-linux-gnu.so
ase:    /global/homes/y/yiyangfu/anaconda3/envs/gpaw/lib/python3.12/site-packages/ase (version 3.23.0)
numpy:  /global/homes/y/yiyangfu/anaconda3/envs/gpaw/lib/python3.12/site-packages/numpy (version 1.26.4)
scipy:  /global/homes/y/yiyangfu/anaconda3/envs/gpaw/lib/python3.12/site-packages/scipy (version 1.14.0)
libxc:  6.2.2
units:  Angstrom and eV
cores: 1
OpenMP: True
OMP_NUM_THREADS: 1

ase:    /global/homes/y/yiyangfu/anaconda3/envs/gpaw/lib/python3.12/site-packages/ase (version 3.23.0)
numpy:  /global/homes/y/yiyangfu/anaconda3/envs/gpaw/lib/python3.12/site-packages/numpy (version 1.26.4)
scipy:  /global/homes/y/yiyangfu/anaconda3/envs/gpaw/lib/python3.12/site-packages/scipy (version 1.14.0)
libxc:  6.2.2
units:  Angstrom and eV
cores: 1
Input parameters:
OpenMP: True
OMP_NUM_THREADS: 1

  kpts: {gamma: True,
         size: (6, 6, 1)}
  mode: {ecut: 100.0,
         name: pw}
  occupations: {fixmagmom: False,
                name: fermi-dirac,
                width: 0.01}
  random: True
  xc: PBE

ase:    /global/homes/y/yiyangfu/anaconda3/envs/gpaw/lib/python3.12/site-packages/ase (version 3.23.0)
Input parameters:
numpy:  /global/homes/y/yiyangfu/anaconda3/envs/gpaw/lib/python3.12/site-packages/numpy (version 1.26.4)
scipy:  /global/homes/y/yiyangfu/anaconda3/envs/gpaw/lib/python3.12/site-packages/scipy (version 1.14.0)
libxc:  6.2.2
units:  Angstrom and eV
cores: 1
OpenMP: True
System changes: positions, numbers, cell, pbc, initial_charges, initial_magmoms 

Initialize ...

OMP_NUM_THREADS: 1

  kpts: {gamma: True,
         size: (6, 6, 1)}
  mode: {ecut: 100.0,
         name: pw}
  occupations: {fixmagmom: False,
                name: fermi-dirac,
                width: 0.01}
  random: True
  xc: PBE

gpaw:   /global/homes/y/yiyangfu/anaconda3/envs/gpaw/lib/python3.12/site-packages/gpaw
System changes: positions, numbers, cell, pbc, initial_charges, initial_magmoms 

_gpaw:  /global/homes/y/yiyangfu/anaconda3/envs/gpaw/lib/python3.12/site-packages/
        _gpaw.cpython-312-x86_64-linux-gnu.so
Initialize ...

Input parameters:
  kpts: {gamma: True,
         size: (6, 6, 1)}
  mode: {ecut: 100.0,
         name: pw}
  occupations: {fixmagmom: False,
                name: fermi-dirac,
                width: 0.01}
  random: True
  xc: PBE

gpaw:   /global/homes/y/yiyangfu/anaconda3/envs/gpaw/lib/python3.12/site-packages/gpaw
_gpaw:  /global/homes/y/yiyangfu/anaconda3/envs/gpaw/lib/python3.12/site-packages/
        _gpaw.cpython-312-x86_64-linux-gnu.so
System changes: positions, numbers, cell, pbc, initial_charges, initial_magmoms 

Initialize ...

ase:    /global/homes/y/yiyangfu/anaconda3/envs/gpaw/lib/python3.12/site-packages/ase (version 3.23.0)
numpy:  /global/homes/y/yiyangfu/anaconda3/envs/gpaw/lib/python3.12/site-packages/numpy (version 1.26.4)
scipy:  /global/homes/y/yiyangfu/anaconda3/envs/gpaw/lib/python3.12/site-packages/scipy (version 1.14.0)
libxc:  6.2.2
units:  Angstrom and eV
cores: 1
OpenMP: True
OMP_NUM_THREADS: 1

Input parameters:
ase:    /global/homes/y/yiyangfu/anaconda3/envs/gpaw/lib/python3.12/site-packages/ase (version 3.23.0)
numpy:  /global/homes/y/yiyangfu/anaconda3/envs/gpaw/lib/python3.12/site-packages/numpy (version 1.26.4)
  kpts: {gamma: True,
         size: (6, 6, 1)}
scipy:  /global/homes/y/yiyangfu/anaconda3/envs/gpaw/lib/python3.12/site-packages/scipy (version 1.14.0)
libxc:  6.2.2
units:  Angstrom and eV
cores: 1
  mode: {ecut: 100.0,
         name: pw}
  occupations: {fixmagmom: False,
                name: fermi-dirac,
                width: 0.01}
OpenMP: True
OMP_NUM_THREADS: 1

  random: True
  xc: PBE

System changes: positions, numbers, cell, pbc, initial_charges, initial_magmoms 

Initialize ...

Input parameters:
  kpts: {gamma: True,
         size: (6, 6, 1)}
  mode: {ecut: 100.0,
         name: pw}
  occupations: {fixmagmom: False,
                name: fermi-dirac,
                width: 0.01}
  random: True
  xc: PBE

System changes: positions, numbers, cell, pbc, initial_charges, initial_magmoms 

Initialize ...

ase:    /global/homes/y/yiyangfu/anaconda3/envs/gpaw/lib/python3.12/site-packages/ase (version 3.23.0)
numpy:  /global/homes/y/yiyangfu/anaconda3/envs/gpaw/lib/python3.12/site-packages/numpy (version 1.26.4)
scipy:  /global/homes/y/yiyangfu/anaconda3/envs/gpaw/lib/python3.12/site-packages/scipy (version 1.14.0)
libxc:  6.2.2
units:  Angstrom and eV
cores: 1
OpenMP: True
OMP_NUM_THREADS: 1

ase:    /global/homes/y/yiyangfu/anaconda3/envs/gpaw/lib/python3.12/site-packages/ase (version 3.23.0)
numpy:  /global/homes/y/yiyangfu/anaconda3/envs/gpaw/lib/python3.12/site-packages/numpy (version 1.26.4)
Input parameters:
scipy:  /global/homes/y/yiyangfu/anaconda3/envs/gpaw/lib/python3.12/site-packages/scipy (version 1.14.0)
libxc:  6.2.2
units:  Angstrom and eV
cores: 1
OpenMP: True
OMP_NUM_THREADS: 1

  kpts: {gamma: True,
         size: (6, 6, 1)}
  mode: {ecut: 100.0,
         name: pw}
  occupations: {fixmagmom: False,
                name: fermi-dirac,
                width: 0.01}
  random: True
  xc: PBE

ase:    /global/homes/y/yiyangfu/anaconda3/envs/gpaw/lib/python3.12/site-packages/ase (version 3.23.0)
numpy:  /global/homes/y/yiyangfu/anaconda3/envs/gpaw/lib/python3.12/site-packages/numpy (version 1.26.4)
scipy:  /global/homes/y/yiyangfu/anaconda3/envs/gpaw/lib/python3.12/site-packages/scipy (version 1.14.0)
libxc:  6.2.2
Input parameters:
units:  Angstrom and eV
cores: 1
OpenMP: True
System changes: positions, numbers, cell, pbc, initial_charges, initial_magmoms 

Initialize ...

OMP_NUM_THREADS: 1

  kpts: {gamma: True,
         size: (6, 6, 1)}
  mode: {ecut: 100.0,
         name: pw}
  occupations: {fixmagmom: False,
                name: fermi-dirac,
                width: 0.01}
  random: True
  xc: PBE

ase:    /global/homes/y/yiyangfu/anaconda3/envs/gpaw/lib/python3.12/site-packages/ase (version 3.23.0)
numpy:  /global/homes/y/yiyangfu/anaconda3/envs/gpaw/lib/python3.12/site-packages/numpy (version 1.26.4)
scipy:  /global/homes/y/yiyangfu/anaconda3/envs/gpaw/lib/python3.12/site-packages/scipy (version 1.14.0)
libxc:  6.2.2
units:  Angstrom and eV
cores: 1
Input parameters:
OpenMP: True
OMP_NUM_THREADS: 1

System changes: positions, numbers, cell, pbc, initial_charges, initial_magmoms 

Initialize ...

  kpts: {gamma: True,
         size: (6, 6, 1)}
  mode: {ecut: 100.0,
         name: pw}
  occupations: {fixmagmom: False,
                name: fermi-dirac,
                width: 0.01}
  random: True
  xc: PBE

gpaw:   /global/homes/y/yiyangfu/anaconda3/envs/gpaw/lib/python3.12/site-packages/gpaw
Input parameters:
_gpaw:  /global/homes/y/yiyangfu/anaconda3/envs/gpaw/lib/python3.12/site-packages/
        _gpaw.cpython-312-x86_64-linux-gnu.so
System changes: positions, numbers, cell, pbc, initial_charges, initial_magmoms 

Initialize ...

  kpts: {gamma: True,
         size: (6, 6, 1)}
  mode: {ecut: 100.0,
         name: pw}
  occupations: {fixmagmom: False,
                name: fermi-dirac,
                width: 0.01}
  random: True
  xc: PBE

gpaw:   /global/homes/y/yiyangfu/anaconda3/envs/gpaw/lib/python3.12/site-packages/gpaw
_gpaw:  /global/homes/y/yiyangfu/anaconda3/envs/gpaw/lib/python3.12/site-packages/
        _gpaw.cpython-312-x86_64-linux-gnu.so
System changes: positions, numbers, cell, pbc, initial_charges, initial_magmoms 

Initialize ...

gpaw:   /global/homes/y/yiyangfu/anaconda3/envs/gpaw/lib/python3.12/site-packages/gpaw
_gpaw:  /global/homes/y/yiyangfu/anaconda3/envs/gpaw/lib/python3.12/site-packages/
        _gpaw.cpython-312-x86_64-linux-gnu.so
ase:    /global/homes/y/yiyangfu/anaconda3/envs/gpaw/lib/python3.12/site-packages/ase (version 3.23.0)
numpy:  /global/homes/y/yiyangfu/anaconda3/envs/gpaw/lib/python3.12/site-packages/numpy (version 1.26.4)
scipy:  /global/homes/y/yiyangfu/anaconda3/envs/gpaw/lib/python3.12/site-packages/scipy (version 1.14.0)
libxc:  6.2.2
units:  Angstrom and eV
cores: 1
OpenMP: True
OMP_NUM_THREADS: 1

ase:    /global/homes/y/yiyangfu/anaconda3/envs/gpaw/lib/python3.12/site-packages/ase (version 3.23.0)
numpy:  /global/homes/y/yiyangfu/anaconda3/envs/gpaw/lib/python3.12/site-packages/numpy (version 1.26.4)
scipy:  /global/homes/y/yiyangfu/anaconda3/envs/gpaw/lib/python3.12/site-packages/scipy (version 1.14.0)
libxc:  6.2.2
units:  Angstrom and eV
cores: 1
OpenMP: True
OMP_NUM_THREADS: 1

Input parameters:
  kpts: {gamma: True,
         size: (6, 6, 1)}
  mode: {ecut: 100.0,
         name: pw}
  occupations: {fixmagmom: False,
                name: fermi-dirac,
                width: 0.01}
  random: True
  xc: PBE

Input parameters:
  kpts: {gamma: True,
         size: (6, 6, 1)}
  mode: {ecut: 100.0,
         name: pw}
System changes: positions, numbers, cell, pbc, initial_charges, initial_magmoms 

Initialize ...

  occupations: {fixmagmom: False,
                name: fermi-dirac,
                width: 0.01}
  random: True
  xc: PBE

System changes: positions, numbers, cell, pbc, initial_charges, initial_magmoms 

Initialize ...

gpaw:   /global/homes/y/yiyangfu/anaconda3/envs/gpaw/lib/python3.12/site-packages/gpaw
_gpaw:  /global/homes/y/yiyangfu/anaconda3/envs/gpaw/lib/python3.12/site-packages/
        _gpaw.cpython-312-x86_64-linux-gnu.so
gpaw:   /global/homes/y/yiyangfu/anaconda3/envs/gpaw/lib/python3.12/site-packages/gpaw
_gpaw:  /global/homes/y/yiyangfu/anaconda3/envs/gpaw/lib/python3.12/site-packages/
        _gpaw.cpython-312-x86_64-linux-gnu.so
ase:    /global/homes/y/yiyangfu/anaconda3/envs/gpaw/lib/python3.12/site-packages/ase (version 3.23.0)
numpy:  /global/homes/y/yiyangfu/anaconda3/envs/gpaw/lib/python3.12/site-packages/numpy (version 1.26.4)
scipy:  /global/homes/y/yiyangfu/anaconda3/envs/gpaw/lib/python3.12/site-packages/scipy (version 1.14.0)
libxc:  6.2.2
units:  Angstrom and eV
cores: 1
OpenMP: True
OMP_NUM_THREADS: 1

gpaw:   /global/homes/y/yiyangfu/anaconda3/envs/gpaw/lib/python3.12/site-packages/gpaw
Input parameters:
_gpaw:  /global/homes/y/yiyangfu/anaconda3/envs/gpaw/lib/python3.12/site-packages/
        _gpaw.cpython-312-x86_64-linux-gnu.so
  kpts: {gamma: True,
         size: (6, 6, 1)}
  mode: {ecut: 100.0,
         name: pw}
  occupations: {fixmagmom: False,
                name: fermi-dirac,
                width: 0.01}
  random: True
  xc: PBE

gpaw:   /global/homes/y/yiyangfu/anaconda3/envs/gpaw/lib/python3.12/site-packages/gpaw
_gpaw:  /global/homes/y/yiyangfu/anaconda3/envs/gpaw/lib/python3.12/site-packages/
        _gpaw.cpython-312-x86_64-linux-gnu.so
System changes: positions, numbers, cell, pbc, initial_charges, initial_magmoms 

Initialize ...

ase:    /global/homes/y/yiyangfu/anaconda3/envs/gpaw/lib/python3.12/site-packages/ase (version 3.23.0)
numpy:  /global/homes/y/yiyangfu/anaconda3/envs/gpaw/lib/python3.12/site-packages/numpy (version 1.26.4)
scipy:  /global/homes/y/yiyangfu/anaconda3/envs/gpaw/lib/python3.12/site-packages/scipy (version 1.14.0)
libxc:  6.2.2
units:  Angstrom and eV
cores: 1
OpenMP: True
OMP_NUM_THREADS: 1

ase:    /global/homes/y/yiyangfu/anaconda3/envs/gpaw/lib/python3.12/site-packages/ase (version 3.23.0)
numpy:  /global/homes/y/yiyangfu/anaconda3/envs/gpaw/lib/python3.12/site-packages/numpy (version 1.26.4)
Input parameters:
scipy:  /global/homes/y/yiyangfu/anaconda3/envs/gpaw/lib/python3.12/site-packages/scipy (version 1.14.0)
libxc:  6.2.2
units:  Angstrom and eV
cores: 1
OpenMP: True
OMP_NUM_THREADS: 1

  kpts: {gamma: True,
         size: (6, 6, 1)}
  mode: {ecut: 100.0,
         name: pw}
  occupations: {fixmagmom: False,
                name: fermi-dirac,
                width: 0.01}
  random: True
  xc: PBE

Input parameters:
System changes: positions, numbers, cell, pbc, initial_charges, initial_magmoms 

Initialize ...
ase:    /global/homes/y/yiyangfu/anaconda3/envs/gpaw/lib/python3.12/site-packages/ase (version 3.23.0)
numpy:  /global/homes/y/yiyangfu/anaconda3/envs/gpaw/lib/python3.12/site-packages/numpy (version 1.26.4)

scipy:  /global/homes/y/yiyangfu/anaconda3/envs/gpaw/lib/python3.12/site-packages/scipy (version 1.14.0)
libxc:  6.2.2
units:  Angstrom and eV
cores: 1
  kpts: {gamma: True,
         size: (6, 6, 1)}
OpenMP: True
OMP_NUM_THREADS: 1

  mode: {ecut: 100.0,
         name: pw}
  occupations: {fixmagmom: False,
                name: fermi-dirac,
                width: 0.01}
  random: True
  xc: PBE

gpaw:   /global/homes/y/yiyangfu/anaconda3/envs/gpaw/lib/python3.12/site-packages/gpaw
_gpaw:  /global/homes/y/yiyangfu/anaconda3/envs/gpaw/lib/python3.12/site-packages/
        _gpaw.cpython-312-x86_64-linux-gnu.so
System changes: positions, numbers, cell, pbc, initial_charges, initial_magmoms 

Initialize ...

Input parameters:
  kpts: {gamma: True,
         size: (6, 6, 1)}
  mode: {ecut: 100.0,
         name: pw}
  occupations: {fixmagmom: False,
                name: fermi-dirac,
                width: 0.01}
  random: True
  xc: PBE

gpaw:   /global/homes/y/yiyangfu/anaconda3/envs/gpaw/lib/python3.12/site-packages/gpaw
_gpaw:  /global/homes/y/yiyangfu/anaconda3/envs/gpaw/lib/python3.12/site-packages/
        _gpaw.cpython-312-x86_64-linux-gnu.so
System changes: positions, numbers, cell, pbc, initial_charges, initial_magmoms 

Initialize ...

ase:    /global/homes/y/yiyangfu/anaconda3/envs/gpaw/lib/python3.12/site-packages/ase (version 3.23.0)
numpy:  /global/homes/y/yiyangfu/anaconda3/envs/gpaw/lib/python3.12/site-packages/numpy (version 1.26.4)
scipy:  /global/homes/y/yiyangfu/anaconda3/envs/gpaw/lib/python3.12/site-packages/scipy (version 1.14.0)
libxc:  6.2.2
units:  Angstrom and eV
cores: 1
OpenMP: True
OMP_NUM_THREADS: 1

Input parameters:
  kpts: {gamma: True,
         size: (6, 6, 1)}
  mode: {ecut: 100.0,
         name: pw}
  occupations: {fixmagmom: False,
                name: fermi-dirac,
                width: 0.01}
  random: True
  xc: PBE

ase:    /global/homes/y/yiyangfu/anaconda3/envs/gpaw/lib/python3.12/site-packages/ase (version 3.23.0)
numpy:  /global/homes/y/yiyangfu/anaconda3/envs/gpaw/lib/python3.12/site-packages/numpy (version 1.26.4)
scipy:  /global/homes/y/yiyangfu/anaconda3/envs/gpaw/lib/python3.12/site-packages/scipy (version 1.14.0)
libxc:  6.2.2
units:  Angstrom and eV
cores: 1
OpenMP: True
System changes: positions, numbers, cell, pbc, initial_charges, initial_magmoms 

OMP_NUM_THREADS: 1

Initialize ...

ase:    /global/homes/y/yiyangfu/anaconda3/envs/gpaw/lib/python3.12/site-packages/ase (version 3.23.0)
Input parameters:
numpy:  /global/homes/y/yiyangfu/anaconda3/envs/gpaw/lib/python3.12/site-packages/numpy (version 1.26.4)
scipy:  /global/homes/y/yiyangfu/anaconda3/envs/gpaw/lib/python3.12/site-packages/scipy (version 1.14.0)
libxc:  6.2.2
units:  Angstrom and eV
cores: 1
OpenMP: True
OMP_NUM_THREADS: 1

  kpts: {gamma: True,
         size: (6, 6, 1)}
  mode: {ecut: 100.0,
         name: pw}
  occupations: {fixmagmom: False,
                name: fermi-dirac,
                width: 0.01}
  random: True
  xc: PBE

System changes: positions, numbers, cell, pbc, initial_charges, initial_magmoms 

Input parameters:
Initialize ...

  kpts: {gamma: True,
         size: (6, 6, 1)}
  mode: {ecut: 100.0,
         name: pw}
  occupations: {fixmagmom: False,
                name: fermi-dirac,
                width: 0.01}
  random: True
ase:    /global/homes/y/yiyangfu/anaconda3/envs/gpaw/lib/python3.12/site-packages/ase (version 3.23.0)
numpy:  /global/homes/y/yiyangfu/anaconda3/envs/gpaw/lib/python3.12/site-packages/numpy (version 1.26.4)
  xc: PBE
scipy:  /global/homes/y/yiyangfu/anaconda3/envs/gpaw/lib/python3.12/site-packages/scipy (version 1.14.0)
libxc:  6.2.2
units:  Angstrom and eV
cores: 1
OpenMP: True
OMP_NUM_THREADS: 1


System changes: positions, numbers, cell, pbc, initial_charges, initial_magmoms 

Initialize ...

ase:    /global/homes/y/yiyangfu/anaconda3/envs/gpaw/lib/python3.12/site-packages/ase (version 3.23.0)
numpy:  /global/homes/y/yiyangfu/anaconda3/envs/gpaw/lib/python3.12/site-packages/numpy (version 1.26.4)
scipy:  /global/homes/y/yiyangfu/anaconda3/envs/gpaw/lib/python3.12/site-packages/scipy (version 1.14.0)
Input parameters:
libxc:  6.2.2
units:  Angstrom and eV
cores: 1
OpenMP: True
OMP_NUM_THREADS: 1

  kpts: {gamma: True,
         size: (6, 6, 1)}
  mode: {ecut: 100.0,
         name: pw}
  occupations: {fixmagmom: False,
                name: fermi-dirac,
                width: 0.01}
  random: True
  xc: PBE

Input parameters:
System changes: positions, numbers, cell, pbc, initial_charges, initial_magmoms 

Initialize ...

  kpts: {gamma: True,
         size: (6, 6, 1)}
  mode: {ecut: 100.0,
         name: pw}
  occupations: {fixmagmom: False,
                name: fermi-dirac,
                width: 0.01}
  random: True
  xc: PBE

System changes: positions, numbers, cell, pbc, initial_charges, initial_magmoms 

Initialize ...

ase:    /global/homes/y/yiyangfu/anaconda3/envs/gpaw/lib/python3.12/site-packages/ase (version 3.23.0)
numpy:  /global/homes/y/yiyangfu/anaconda3/envs/gpaw/lib/python3.12/site-packages/numpy (version 1.26.4)
scipy:  /global/homes/y/yiyangfu/anaconda3/envs/gpaw/lib/python3.12/site-packages/scipy (version 1.14.0)
libxc:  6.2.2
units:  Angstrom and eV
cores: 1
OpenMP: True
OMP_NUM_THREADS: 1

ase:    /global/homes/y/yiyangfu/anaconda3/envs/gpaw/lib/python3.12/site-packages/ase (version 3.23.0)
numpy:  /global/homes/y/yiyangfu/anaconda3/envs/gpaw/lib/python3.12/site-packages/numpy (version 1.26.4)
scipy:  /global/homes/y/yiyangfu/anaconda3/envs/gpaw/lib/python3.12/site-packages/scipy (version 1.14.0)
libxc:  6.2.2
units:  Angstrom and eV
cores: 1
OpenMP: True
Input parameters:
OMP_NUM_THREADS: 1

  kpts: {gamma: True,
         size: (6, 6, 1)}
  mode: {ecut: 100.0,
         name: pw}
  occupations: {fixmagmom: False,
                name: fermi-dirac,
                width: 0.01}
  random: True
  xc: PBE

Input parameters:
System changes: positions, numbers, cell, pbc, initial_charges, initial_magmoms 

Initialize ...

  kpts: {gamma: True,
         size: (6, 6, 1)}
  mode: {ecut: 100.0,
         name: pw}
  occupations: {fixmagmom: False,
                name: fermi-dirac,
                width: 0.01}
  random: True
  xc: PBE

System changes: positions, numbers, cell, pbc, initial_charges, initial_magmoms 

Initialize ...

OMP: Warning #81: OMP_PROC_BIND: extra trailing characters ignored: "s".
OMP: Warning #81: OMP_PROC_BIND: extra trailing characters ignored: "s".
OMP: Warning #81: OMP_PROC_BIND: extra trailing characters ignored: "s".
OMP: Warning #81: OMP_PROC_BIND: extra trailing characters ignored: "s".
OMP: Warning #81: OMP_PROC_BIND: extra trailing characters ignored: "s".
OMP: Warning #81: OMP_PROC_BIND: extra trailing characters ignored: "s".
OMP: Warning #81: OMP_PROC_BIND: extra trailing characters ignored: "s".
OMP: Warning #81: OMP_PROC_BIND: extra trailing characters ignored: "s".
OMP: Warning #81: OMP_PROC_BIND: extra trailing characters ignored: "s".
OMP: Warning #81: OMP_PROC_BIND: extra trailing characters ignored: "s".
OMP: Warning #81: OMP_PROC_BIND: extra trailing characters ignored: "s".
OMP: Warning #81: OMP_PROC_BIND: extra trailing characters ignored: "s".
OMP: Warning #81: OMP_PROC_BIND: extra trailing characters ignored: "s".
OMP: Warning #81: OMP_PROC_BIND: extra trailing characters ignored: "s".
OMP: Warning #81: OMP_PROC_BIND: extra trailing characters ignored: "s".
OMP: Warning #81: OMP_PROC_BIND: extra trailing characters ignored: "s".
OMP: Warning #81: OMP_PROC_BIND: extra trailing characters ignored: "s".
OMP: Warning #81: OMP_PROC_BIND: extra trailing characters ignored: "s".
OMP: Warning #81: OMP_PROC_BIND: extra trailing characters ignored: "s".
OMP: Warning #81: OMP_PROC_BIND: extra trailing characters ignored: "s".
OMP: Warning #81: OMP_PROC_BIND: extra trailing characters ignored: "s".
OMP: Warning #81: OMP_PROC_BIND: extra trailing characters ignored: "s".
OMP: Warning #81: OMP_PROC_BIND: extra trailing characters ignored: "s".
OMP: Warning #81: OMP_PROC_BIND: extra trailing characters ignored: "s".
OMP: Warning #81: OMP_PROC_BIND: extra trailing characters ignored: "s".
OMP: Warning #81: OMP_PROC_BIND: extra trailing characters ignored: "s".
OMP: Warning #81: OMP_PROC_BIND: extra trailing characters ignored: "s".
OMP: Warning #81: OMP_PROC_BIND: extra trailing characters ignored: "s".
OMP: Warning #81: OMP_PROC_BIND: extra trailing characters ignored: "s".
OMP: Warning #81: OMP_PROC_BIND: extra trailing characters ignored: "s".
OMP: Warning #81: OMP_PROC_BIND: extra trailing characters ignored: "s".
OMP: Warning #81: OMP_PROC_BIND: extra trailing characters ignored: "s".
OMP: Warning #81: OMP_PROC_BIND: extra trailing characters ignored: "s".
OMP: Warning #81: OMP_PROC_BIND: extra trailing characters ignored: "s".
OMP: Warning #81: OMP_PROC_BIND: extra trailing characters ignored: "s".
OMP: Warning #81: OMP_PROC_BIND: extra trailing characters ignored: "s".
OMP: Warning #81: OMP_PROC_BIND: extra trailing characters ignored: "s".
OMP: Warning #81: OMP_PROC_BIND: extra trailing characters ignored: "s".
OMP: Warning #81: OMP_PROC_BIND: extra trailing characters ignored: "s".
OMP: Warning #81: OMP_PROC_BIND: extra trailing characters ignored: "s".
OMP: Warning #81: OMP_PROC_BIND: extra trailing characters ignored: "s".
OMP: Warning #81: OMP_PROC_BIND: extra trailing characters ignored: "s".
OMP: Warning #81: OMP_PROC_BIND: extra trailing characters ignored: "s".
OMP: Warning #81: OMP_PROC_BIND: extra trailing characters ignored: "s".
OMP: Warning #81: OMP_PROC_BIND: extra trailing characters ignored: "s".
OMP: Warning #81: OMP_PROC_BIND: extra trailing characters ignored: "s".
[...]
0h4m35s / 0h7m38s (60%) |---------------------              |  2007 MB/coreiter:  33 08:48:03   396.025062c  -5.26  -3.41
0h5m6s / 0h7m18s (70%) |------------------------           |  2124 MB/core0h5m20s / 0h5m55s (90%) |------------------------------*    |  2341 MB/core0h4m56s / 0h15m48s (31%) |----------                         |  2434 MB/core0h4m18s / 0h17m12s (25%) |--------                           |  2267 MB/coreiter:  45 08:48:10   923.782308c  -5.82  -3.03
iter:  34 08:48:15   396.025059c  -6.34  -3.63
0h5m16s / 0h6m35s (80%) |---------------------------*       |  2416 MB/core0h5m45s / 0h6m4s (95%) |--------------------------------*  |  2536 MB/coreiter:  46 08:48:19   923.782307c  -6.86  -3.21
0h4m56s / 0h7m35s (65%) |----------------------             |  2118 MB/core0h5m26s / 0h7m14s (75%) |-------------------------*         |  2213 MB/core0h5m37s / 0h5m55s (95%) |--------------------------------*  |  2435 MB/core0h5m1s / 0h7m18s (69%) |-----------------------*           |  2135 MB/core0h5m19s / 0h21m17s (25%) |-------*                           |  2432 MB/coreiter:  35 08:48:26   396.025066c  -6.88  -3.66
iter:  47 08:48:27   923.782355c  -6.88  -3.30
0h2m2s / 0h10m8s (20%) |------*                            |  1559 MB/core0h4m51s / 0h13m52s (35%) |-----------*                       |  2158 MB/core0h6m3s / 0h6m3s (100%) |-----------------------------------|  2625 MB/core
0h5m16s / 0h35m5s (15%) |----*                              |  2876 MB/core0h5m35s / 0h6m34s (85%) |----------------------------*      |  2525 MB/coreiter:  48 08:48:36   923.782343c  -7.05  -3.38
iter:  36 08:48:38   396.025067c  -7.62c -3.78
0h5m55s / 0h5m55s (100%) |-----------------------------------|  2523 MB/core
0h5m46s / 0h7m13s (80%) |----------------------------       |  2316 MB/coreiter:  49 08:48:44   923.782379c  -6.96  -3.46
0h5m18s / 0h7m34s (70%) |-----------------------*           |  2237 MB/core0h3m46s / 0h18m51s (20%) |-------                            |  2178 MB/core0h3m7s / 0h12m28s (25%) |--------                           |  1914 MB/coreiter:  37 08:48:50   396.025063c  -7.48c -3.87
0h1m53s / 0h37m33s (5%) |-                                  |  2342 MB/coreiter:  50 08:48:52   923.782386c  -6.89  -3.57
0h5m28s / 0h7m17s (75%) |--------------------------         |  2255 MB/core0h5m54s / 0h6m33s (90%) |-------------------------------    |  2624 MB/core0h2m31s / 0h10m6s (25%) |-------*                           |  1696 MB/coreiter:  51 08:49:01   923.782388c  -8.22c -3.75
iter:  38 08:49:01   396.025071c  -8.14c -4.20c

Converged after 38 iterations.

Dipole moment: (-0.000000, -2.466903, 0.000000) |e|*Ang

Energy contributions relative to reference atoms: (reference = -1264223.249804)

Kinetic:       -3180.663710
Potential:     +3387.381236
External:        +0.000000
XC:            +180.740368
Entropy (-ST):   +0.000000
Local:           +8.567177
SIC:             +0.000000
--------------------------
Free energy:   +396.025071
Extrapolated:  +396.025071

Showing only first 2 kpts
 Kpt  Band  Eigenvalues  Occupancy
  0    76     -5.96509    2.00000
  0    77     -5.95300    2.00000
  0    78     -4.89219    0.00000
  0    79     -4.60194    0.00000

  1    76     -5.94879    2.00000
  1    77     -5.94395    2.00000
  1    78     -4.80348    0.00000
  1    79     -4.58267    0.00000


Fermi level: -5.48031

Gap: 1.042 eV
Transition (v -> c):
  (s=0, k=2, n=77, [[0.00, 0.33, 0.00]]) -> (s=0, k=0, n=78, [[0.00, 0.00, 0.00]])
Direct/indirect transitions are different
Direct gap: 1.061 eV
Transition at: (s=0, k=0, n=77, [[0.00, 0.00, 0.00]])
Diagonalizing full Hamiltonian (5492 lowest bands)
Matrix size (min, max): 5492, 5565
Approximate memory used per core to store H_GG, S_GG: 1417.659 MB
Notice: Up to twice the amount of memory might be allocated
during diagonalization algorithm.
The least memory is required when the parallelization is purely
over states (bands) and not k-points, set GPAW(..., parallel={'kpt': 1}, ...).
0h6m5s / 0h7m10s (85%) |----------------------------*      |  2411 MB/core0h5m52s / 0h15m40s (38%) |-------------                      |  2648 MB/core0h5m40s / 0h7m33s (75%) |-------------------------*         |  2352 MB/core0h5m29s / 0h13m43s (40%) |-------------*                     |  2309 MB/coreiter:  52 08:49:09   923.782391c  -7.56c -3.79
0h6m13s / 0h6m32s (95%) |---------------------------------  |  2728 MB/core0h5m21s / 0h17m7s (31%) |----------                         |  2490 MB/coreiter:  53 08:49:18   923.782391c  -8.06c -4.03c

Converged after 53 iterations.

Dipole moment: (-31.647077, 35.933782, 0.126170) |e|*Ang

Energy contributions relative to reference atoms: (reference = -438213.632536)

Kinetic:       -3281.863694
Potential:     +3871.625479
External:        +0.000000
XC:            +327.438517
Entropy (-ST):   -0.006731
Local:           +6.585454
SIC:             +0.000000
--------------------------
Free energy:   +923.779025
Extrapolated:  +923.782391

Showing only first 2 kpts
 Kpt  Band  Eigenvalues  Occupancy
  0    44    -12.78866    2.00000
  0    45    -12.59532    1.72253
  0    46    -12.08122    0.00000
  0    47    -11.64274    0.00000

  1    44    -13.11828    2.00000
  1    45    -12.64967    1.99860
  1    46    -12.17129    0.00000
  1    47    -11.86296    0.00000


Fermi level: -12.57706

No gap
No difference between direct/indirect transitions
Diagonalizing full Hamiltonian (6433 lowest bands)
Matrix size (min, max): 6433, 6561
Approximate memory used per core to store H_GG, S_GG: 1970.523 MB
Notice: Up to twice the amount of memory might be allocated
during diagonalization algorithm.
The least memory is required when the parallelization is purely
over states (bands) and not k-points, set GPAW(..., parallel={'kpt': 1}, ...).
0h5m53s / 0h7m15s (81%) |---------------------------*       |  2379 MB/core0h6m25s / 0h7m8s (90%) |------------------------------*    |  2521 MB/core0h6m45s / 0h21m55s (31%) |----------                         |  2913 MB/core0h3m14s / 0h25m52s (12%) |---*                               |  2528 MB/core0h3m1s / 0h10m3s (30%) |----------                         |  1853 MB/core0h6m1s / 0h7m31s (80%) |---------------------------*       |  2449 MB/core0h6m32s / 0h6m32s (100%) |-----------------------------------|  2838 MB/core
0h5m50s / 0h38m56s (15%) |-----                              |  3017 MB/core0h3m52s / 0h12m21s (31%) |---------*                         |  2096 MB/core0h6m31s / 0h20m50s (31%) |----------                         |  2675 MB/core0h6m45s / 0h7m6s (95%) |---------------------------------  |  2611 MB/core0h4m42s / 0h18m47s (25%) |-------*                           |  2382 MB/core0h6m20s / 0h7m14s (88%) |-----------------------------*     |  2502 MB/core0h6m7s / 0h13m35s (45%) |---------------                    |  2454 MB/core0h6m22s / 0h7m30s (85%) |-----------------------------      |  2544 MB/core0h3m30s / 0h10m1s (35%) |------------                       |  1992 MB/core0h7m4s / 0h7m4s (100%) |-----------------------------------|  2708 MB/core
0h6m51s / 0h15m39s (44%) |---------------                    |  2891 MB/core0h6m46s / 0h7m13s (94%) |--------------------------------   |  2612 MB/core0h6m44s / 0h7m29s (90%) |-------------------------------    |  2658 MB/core0h6m55s / 0h34m35s (20%) |-------                            |  3204 MB/core0h6m22s / 0h16m59s (38%) |-------------                      |  2728 MB/core0h4m36s / 0h12m17s (38%) |-------------                      |  2284 MB/core0h6m44s / 0h13m29s (50%) |-----------------                  |  2612 MB/core0h4m1s / 0h10m2s (40%) |--------------                     |  2134 MB/core0h7m5s / 0h7m27s (95%) |--------------------------------*  |  2764 MB/core0h7m10s / 0h7m10s (100%) |-----------------------------------|  2730 MB/core
0h5m40s / 0h18m52s (30%) |---------*                         |  2595 MB/core0h3m42s / 0h37m4s (10%) |---                                |  2664 MB/core0h7m41s / 0h20m31s (38%) |------------*                      |  2927 MB/core0h7m25s / 0h7m25s (100%) |----------------------------------*|  2859 MB/core
0h4m46s / 0h25m28s (19%) |------                             |  2818 MB/core0h8m19s / 0h21m37s (38%) |-------------                      |  3193 MB/core0h4m31s / 0h10m2s (45%) |--------------*                    |  2278 MB/core0h7m48s / 0h15m35s (50%) |----------------*                  |  3102 MB/core0h7m23s / 0h13m25s (55%) |-------------------                |  2778 MB/core0h5m21s / 0h12m13s (44%) |---------------                    |  2465 MB/core0h7m24s / 0h16m54s (44%) |--------------*                    |  2941 MB/core0h7m40s / 0h38m20s (20%) |------*                            |  3363 MB/core0h5m1s / 0h10m2s (50%) |----------------*                  |  2412 MB/core0h6m36s / 0h18m52s (35%) |------------                       |  2791 MB/core0h8m1s / 0h13m22s (60%) |--------------------*              |  2944 MB/core0h6m4s / 0h12m9s (50%) |-----------------                  |  2646 MB/core0h8m33s / 0h34m13s (25%) |-------*                           |  3483 MB/core0h8m41s / 0h15m26s (56%) |-------------------                |  3299 MB/core0h8m48s / 0h20m7s (44%) |---------------                    |  3177 MB/core0h5m31s / 0h10m1s (55%) |-------------------                |  2550 MB/core0h3m6s / 0h49m37s (6%) |--                                 |  3294 MB/core0h8m39s / 0h13m19s (65%) |---------------------*             |  3094 MB/core0h8m25s / 0h16m51s (50%) |----------------*                  |  3168 MB/core0h5m26s / 0h36m11s (15%) |----*                              |  2975 MB/core0h5m60s / 0h9m59s (60%) |--------------------*              |  2673 MB/core0h9m49s / 0h21m16s (46%) |----------------                   |  3504 MB/core0h6m49s / 0h12m7s (56%) |-------------------                |  2834 MB/core0h6m21s / 0h25m26s (25%) |-------*                           |  3133 MB/core0h7m30s / 0h18m46s (40%) |--------------                     |  2988 MB/core0h5m11s / 1h43m38s (5%) |-                                  |  4524 MB/core0h9m36s / 0h15m22s (62%) |---------------------              |  3523 MB/core0h9m16s / 0h13m14s (70%) |-----------------------*           |  3247 MB/core0h6m27s / 0h9m56s (65%) |---------------------*             |  2808 MB/core0h9m56s / 0h19m53s (50%) |-----------------                  |  3421 MB/core0h9m30s / 0h37m59s (25%) |-------*                           |  3711 MB/core0h7m31s / 0h12m2s (62%) |--------------------*              |  3002 MB/core0h9m28s / 0h16m50s (56%) |-------------------                |  3420 MB/core0h6m57s / 0h9m56s (70%) |------------------------           |  2949 MB/core0h8m23s / 0h18m38s (45%) |---------------                    |  3181 MB/core0h10m9s / 0h33m49s (30%) |----------                         |  3828 MB/core0h9m53s / 0h13m10s (75%) |--------------------------         |  3393 MB/core0h10m32s / 0h15m20s (69%) |------------------------           |  3746 MB/core0h4m34s / 1h31m16s (5%) |*                                  |  4240 MB/core0h7m26s / 0h9m54s (75%) |-------------------------*         |  3102 MB/core0h8m14s / 0h11m58s (69%) |-----------------------*           |  3165 MB/core0h11m24s / 0h21m10s (54%) |-----------------*                 |  3837 MB/core0h7m56s / 0h25m22s (31%) |---------*                         |  3466 MB/core0h10m29s / 0h13m6s (80%) |----------------------------       |  3562 MB/core0h11m0s / 0h19m34s (56%) |-------------------                |  3654 MB/core0h7m13s / 0h36m7s (20%) |------*                            |  3342 MB/core0h9m16s / 0h18m32s (50%) |-----------------                  |  3384 MB/core0h7m55s / 0h9m53s (80%) |----------------------------       |  3252 MB/core0h10m32s / 0h16m52s (62%) |---------------------              |  3652 MB/core0h8m56s / 0h11m54s (75%) |-------------------------*         |  3352 MB/core0h11m29s / 0h15m19s (75%) |-------------------------*         |  3975 MB/core0h11m7s / 0h13m5s (85%) |----------------------------*      |  3736 MB/core0h8m22s / 0h9m50s (85%) |----------------------------*      |  3343 MB/core0h11m47s / 0h33m39s (35%) |------------                       |  4150 MB/core0h11m25s / 0h38m4s (30%) |---------*                         |  4084 MB/core0h12m4s / 0h19m18s (62%) |--------------------*              |  3882 MB/core0h10m10s / 0h18m29s (55%) |-------------------                |  3602 MB/core0h8m50s / 0h9m48s (90%) |------------------------------*    |  3500 MB/core0h6m16s / 0h50m7s (12%) |---*                               |  3761 MB/core0h11m44s / 0h13m2s (90%) |-------------------------------    |  3879 MB/core0h9m42s / 0h11m56s (81%) |---------------------------*       |  3557 MB/core0h11m34s / 0h16m50s (69%) |------------------------           |  3889 MB/core0h12m53s / 0h20m56s (62%) |--------------------*              |  4117 MB/core0h12m22s / 0h15m14s (81%) |----------------------------       |  4148 MB/core0h9m29s / 0h25m18s (38%) |------------*                      |  3817 MB/core0h9m19s / 0h9m49s (95%) |--------------------------------*  |  3659 MB/core0h8m56s / 0h35m44s (25%) |--------                           |  3625 MB/core0h12m20s / 0h12m59s (95%) |---------------------------------  |  4038 MB/core0h11m4s / 0h18m27s (60%) |---------------------              |  3809 MB/core0h10m26s / 0h11m55s (88%) |------------------------------     |  3730 MB/core0h13m8s / 0h19m6s (69%) |------------------------           |  4129 MB/core0h9m49s / 0h9m49s (100%) |-----------------------------------|  3795 MB/core
0h13m16s / 0h15m10s (88%) |------------------------------     |  4400 MB/core0h12m39s / 0h16m51s (75%) |--------------------------         |  4110 MB/core0h12m59s / 0h12m59s (100%) |----------------------------------*|  4211 MB/core
0h13m24s / 0h33m29s (40%) |-------------*                     |  4465 MB/core0h11m10s / 0h11m54s (94%) |-------------------------------*   |  3886 MB/core0h13m14s / 0h37m49s (35%) |------------                       |  4431 MB/core0h11m58s / 0h18m24s (65%) |---------------------*             |  4011 MB/core0h14m24s / 0h20m48s (69%) |-----------------------*           |  4406 MB/core0h11m3s / 0h25m16s (44%) |--------------*                    |  4111 MB/core0h14m14s / 0h18m59s (75%) |--------------------------         |  4373 MB/core0h14m11s / 0h15m8s (94%) |-------------------------------*   |  4632 MB/core0h11m50s / 0h11m50s (100%) |----------------------------------*|  4049 MB/core
0h13m41s / 0h16m51s (81%) |---------------------------*       |  4331 MB/core0h10m42s / 0h35m39s (30%) |---------*                         |  4002 MB/core0h12m52s / 0h18m23s (70%) |------------------------           |  4208 MB/core0h10m27s / 1h44m33s (10%) |--*                                |  5242 MB/core0h14m58s / 0h33m16s (45%) |---------------                    |  4793 MB/core0h15m6s / 0h15m6s (100%) |----------------------------------*|  4851 MB/core
0h9m21s / 0h49m52s (19%) |-----*                             |  4220 MB/core0h9m6s / 1h30m60s (10%) |--*                                |  4929 MB/core0h15m19s / 0h18m51s (81%) |---------------------------*       |  4609 MB/core0h15m52s / 0h20m37s (77%) |-------------------------*         |  4738 MB/core0h14m43s / 0h16m49s (88%) |------------------------------     |  4558 MB/core0h13m41s / 0h18m14s (75%) |--------------------------         |  4368 MB/core0h12m34s / 0h25m7s (50%) |----------------*                  |  4406 MB/core0h15m2s / 0h37m35s (40%) |-------------*                     |  4771 MB/core0h12m23s / 0h35m22s (35%) |------------                       |  4316 MB/core0h16m24s / 0h18m44s (88%) |-----------------------------*     |  4839 MB/core0h14m32s / 0h18m11s (80%) |----------------------------       |  4611 MB/core0h15m43s / 0h16m46s (94%) |-------------------------------*   |  4803 MB/core0h16m33s / 0h33m6s (50%) |----------------*                  |  5120 MB/core0h17m18s / 0h20m27s (85%) |-----------------------------      |  5034 MB/core0h14m2s / 0h24m57s (56%) |-------------------                |  4733 MB/core0h15m23s / 0h18m6s (85%) |-----------------------------      |  4817 MB/core0h16m49s / 0h37m22s (45%) |---------------                    |  5101 MB/core0h17m26s / 0h18m35s (94%) |-------------------------------*   |  5084 MB/core0h16m46s / 0h16m46s (100%) |----------------------------------*|  5059 MB/core
0h14m4s / 0h35m10s (40%) |-------------*                     |  4644 MB/core0h16m12s / 0h18m0s (90%) |-------------------------------    |  5021 MB/core0h18m48s / 0h20m22s (92%) |--------------------------------   |  5317 MB/core0h12m25s / 0h49m42s (25%) |-------*                           |  4770 MB/core0h18m9s / 0h32m60s (55%) |-------------------                |  5431 MB/core0h18m27s / 0h18m27s (100%) |-----------------------------------|  5303 MB/core
0h15m34s / 0h24m54s (62%) |--------------------*              |  5045 MB/core0h17m4s / 0h17m58s (95%) |---------------------------------  |  5227 MB/core0h18m41s / 0h37m21s (50%) |-----------------                  |  5456 MB/core0h15m41s / 0h34m52s (45%) |--------------*                    |  4969 MB/core0h15m19s / 1h42m4s (15%) |-----                              |  5930 MB/core0h13m34s / 1h30m25s (15%) |----*                              |  5566 MB/core0h20m14s / 0h20m14s (100%) |----------------------------------*|  5639 MB/core
0h17m53s / 0h17m53s (100%) |-----------------------------------|  5429 MB/core
0h19m46s / 0h32m57s (60%) |---------------------              |  5737 MB/core0h16m59s / 0h24m42s (69%) |-----------------------*           |  5336 MB/core0h20m29s / 0h37m14s (55%) |-------------------                |  5773 MB/core0h17m17s / 0h34m34s (50%) |-----------------                  |  5292 MB/core0h15m20s / 0h49m5s (31%) |----------                         |  5266 MB/core0h18m27s / 0h24m36s (75%) |--------------------------         |  5632 MB/core0h21m20s / 0h32m49s (65%) |---------------------*             |  6058 MB/core0h18m52s / 0h34m19s (55%) |-------------------                |  5635 MB/core0h22m13s / 0h37m1s (60%) |---------------------              |  6136 MB/core0h19m53s / 0h24m28s (81%) |----------------------------       |  5981 MB/core0h22m53s / 0h32m42s (70%) |-----------------------*           |  6377 MB/core0h18m12s / 0h48m33s (38%) |-------------                      |  5744 MB/core0h17m58s / 1h29m49s (20%) |------*                            |  6201 MB/core0h20m27s / 0h34m6s (60%) |--------------------*              |  5967 MB/core0h21m17s / 0h24m20s (88%) |-----------------------------*     |  6257 MB/core0h24m1s / 0h36m58s (65%) |---------------------*             |  6467 MB/core0h24m28s / 0h32m37s (75%) |-------------------------*         |  6710 MB/core0h20m21s / 1h41m43s (20%) |-------                            |  6588 MB/core0h22m41s / 0h24m11s (94%) |--------------------------------   |  6554 MB/core0h22m4s / 0h33m56s (65%) |---------------------*             |  6309 MB/core0h26m5s / 0h32m36s (80%) |----------------------------       |  7025 MB/core0h25m46s / 0h36m49s (70%) |------------------------           |  6803 MB/core0h21m3s / 0h48m7s (44%) |--------------*                    |  6223 MB/core0h24m5s / 0h24m5s (100%) |-----------------------------------|  6862 MB/core
slurmstepd: error: *** JOB 29178909 ON nid006342 CANCELLED AT 2024-08-08T16:11:30 DUE TO TIME LIMIT ***
